# vtk DataFile Version 5.1
vtk output
ASCII
DATASET POLYDATA
POINTS 40962 float
0 0 100 27.64 -85.07 44.72 89.44 0 44.72 
27.64 85.07 44.72 -72.36 52.57 44.72 -72.36 -52.57 44.72 
-27.64 -85.07 -44.72 72.36 -52.57 -44.72 72.36 52.57 -44.72 
-27.64 85.07 -44.72 -89.44 0 -44.72 0 0 -100 
-42.53 30.9 85.07 -26.29 80.9 52.57 16.25 50 85.07 
-42.53 -30.9 85.07 -85.07 0 52.57 16.25 -50 85.07 
-26.29 -80.9 52.57 52.57 0 85.07 68.82 -50 52.57 
68.82 50 52.57 58.78 80.9 0 95.11 30.9 0 
0 100 0 26.29 80.9 -52.57 -58.78 80.9 0 
-95.11 30.9 0 -68.82 50 -52.57 -95.11 -30.9 0 
-58.78 -80.9 0 -68.82 -50 -52.57 0 -100 0 
58.78 -80.9 0 26.29 -80.9 -52.57 95.11 -30.9 0 
85.07 0 -52.57 -16.25 50 -85.07 42.53 30.9 -85.07 
-52.57 0 -85.07 -16.25 -50 -85.07 42.53 -30.9 -85.07 
-22.11 16.06 96.19 -13.82 42.53 89.44 8.44 25.99 96.19 
-22.11 -16.06 96.19 -44.72 0 89.44 8.44 -25.99 96.19 
-13.82 -42.53 89.44 27.33 0 96.19 36.18 -26.29 89.44 
36.18 26.29 89.44 44.92 86.27 23.25 67.08 68.82 27.64 
50.14 70.2 50.57 14.37 96.19 23.25 30.9 95.11 0 
0.7 86.27 50.57 -13.82 95.11 27.64 -87.05 43.39 23.25 
-80.9 58.78 0 -68.16 69.38 23.25 -81.83 27.33 50.57 
-94.72 16.25 27.64 -68.16 -69.38 23.25 -80.9 -58.78 0 
-87.05 -43.39 23.25 -51.28 -69.38 50.57 -44.72 -85.07 27.64 
44.92 -86.27 23.25 30.9 -95.11 0 14.37 -96.19 23.25 
50.14 -70.2 50.57 67.08 -68.82 27.64 95.93 16.06 23.25 
100 0 0 95.93 -16.06 23.25 51.28 69.38 -50.57 
36.18 58.78 -72.36 59.72 43.39 -67.46 -50.14 70.2 -50.57 
-44.72 52.57 -72.36 -22.81 70.2 -67.46 -82.26 -25.99 -50.57 
-63.82 -26.29 -72.36 -73.82 0 -67.46 -0.7 -86.27 -50.57 
5.28 -68.82 -72.36 -22.81 -70.2 -67.46 81.83 -27.33 -50.57 
67.08 -16.25 -72.36 59.72 -43.39 -67.46 -59.72 43.39 67.46 
-51.28 69.38 50.57 -36.18 58.78 72.36 -5.28 68.82 72.36 
22.81 70.2 67.46 -59.72 -43.39 67.46 -81.83 -27.33 50.57 
-67.08 -16.25 72.36 -67.08 16.25 72.36 22.81 -70.2 67.46 
0.7 -86.27 50.57 -5.28 -68.82 72.36 -36.18 -58.78 72.36 
73.82 0 67.46 82.26 -25.99 50.57 63.82 -26.29 72.36 
44.72 -52.57 72.36 44.72 52.57 72.36 63.82 26.29 72.36 
82.26 25.99 50.57 68.16 69.38 -23.25 87.05 43.39 -23.25 
80.9 58.78 0 86.18 42.53 27.64 -14.37 96.19 -23.25 
-0.7 86.27 -50.57 13.82 95.11 -27.64 44.72 85.07 -27.64 
-44.72 85.07 27.64 -30.9 95.11 0 -44.92 86.27 -23.25 
-95.93 16.06 -23.25 -82.26 25.99 -50.57 -86.18 42.53 -27.64 
-67.08 68.82 -27.64 -94.72 -16.25 27.64 -100 0 0 
-95.93 -16.06 -23.25 -44.92 -86.27 -23.25 -50.14 -70.2 -50.57 
-67.08 -68.82 -27.64 -86.18 -42.53 -27.64 -13.82 -95.11 27.64 
-30.9 -95.11 0 -14.37 -96.19 -23.25 68.16 -69.38 -23.25 
51.28 -69.38 -50.57 44.72 -85.07 -27.64 13.82 -95.11 -27.64 
86.18 -42.53 27.64 80.9 -58.78 0 87.05 -43.39 -23.25 
81.83 27.33 -50.57 94.72 16.25 -27.64 94.72 -16.25 -27.64 
5.28 68.82 -72.36 13.82 42.53 -89.44 -8.44 25.99 -96.19 
22.11 16.06 -96.19 -63.82 26.29 -72.36 -36.18 26.29 -89.44 
-27.33 0 -96.19 -44.72 -52.57 -72.36 -36.18 -26.29 -89.44 
-8.44 -25.99 -96.19 36.18 -58.78 -72.36 13.82 -42.53 -89.44 
22.11 -16.06 -96.19 67.08 16.25 -72.36 44.72 0 -89.44 
-11.16 8.11 99.04 -6.92 21.3 97.46 4.26 13.12 99.04 
-11.16 -8.11 99.04 -22.4 0 97.46 4.26 -13.12 99.04 
-6.92 -21.3 97.46 13.8 0 99.04 18.12 -13.17 97.46 
18.12 13.17 97.46 36.63 86.49 34.31 48.15 79.26 37.39 
39.26 78.38 48.11 21.21 91.5 34.31 30.03 92.43 23.55 
14.31 86.49 48.11 7.63 92.43 37.39 -80.47 48.44 34.31 
-78.63 57.13 23.55 -70.94 61.56 34.31 -77.84 40.34 48.11 
-85.55 35.82 37.39 -70.94 -61.56 34.31 -78.63 -57.13 23.55 
-80.47 -48.44 34.31 -62.41 -61.56 48.11 -60.51 -70.29 37.39 
36.63 -86.49 34.31 30.03 -92.43 23.55 21.21 -91.5 34.31 
39.26 -78.38 48.11 48.15 -79.26 37.39 93.58 8.11 34.31 
97.19 0 23.55 93.58 -8.11 34.31 62.41 61.56 -48.11 
56.23 57.13 -59.79 66.68 48.44 -56.63 -39.26 78.38 -48.11 
-36.95 71.13 -59.79 -25.47 78.38 -56.63 -86.68 -13.12 -48.11 
-79.07 -13.17 -59.79 -82.42 0 -56.63 -14.31 -86.49 -48.11 
-11.91 -79.26 -59.79 -25.47 -78.38 -56.63 77.84 -40.34 -48.11 
71.7 -35.82 -59.79 66.68 -48.44 -56.63 -51.62 37.5 77 
-48.45 51.61 70.63 -39.85 45.4 79.69 1.23 46.84 88.34 
-9.68 56.43 81.99 5.55 60.15 79.69 8.86 70.23 70.63 
19.72 60.68 77 -51.62 -37.5 77 -64.06 -30.13 70.63 
-55.49 -23.87 79.69 -44.17 15.64 88.34 -56.65 8.23 81.99 
-55.49 23.87 79.69 -64.06 30.13 70.63 19.72 -60.68 77 
8.86 -70.23 70.63 5.55 -60.15 79.69 -28.53 -37.17 88.34 
-25.34 -51.34 81.99 -39.85 -45.4 79.69 -48.45 -51.61 70.63 
63.81 0 77 69.53 -13.28 70.63 58.92 -13.31 79.69 
26.54 -38.62 88.34 41 -39.96 81.99 30.86 -51.93 79.69 
34.12 -62.02 70.63 34.12 62.02 70.63 30.86 51.93 79.69 
44.93 13.31 88.34 50.67 26.64 81.99 58.92 13.31 79.69 
69.53 13.28 70.63 64.08 75.87 -11.73 75.3 64.74 -11.74 
70.71 70.71 0 68.8 60.15 40.61 77.66 56.43 28.01 
78.47 46.84 40.61 85.09 34.62 39.51 76.27 38.36 52.07 
-7.25 99.04 -11.73 -0.28 96.64 -25.71 7 98.77 -13.99 
45.4 89.1 0 38.32 91.3 -14.01 52.39 84.02 -13.99 
57.03 78.02 -25.71 -39.16 75.87 52.07 -48.49 78.02 39.51 
-35.95 84.02 40.61 -7 98.77 13.99 -22.66 96.39 14.01 
-15.64 98.77 0 -22.87 96.64 -11.74 -96.44 23.71 -11.73 
-91.99 29.6 -25.71 -91.77 37.17 -13.99 -70.71 70.71 0 
-74.99 64.66 -14.01 -63.71 75.79 -13.99 -56.58 78.35 -25.71 
-52.35 84.39 -11.73 -84.25 -13.8 52.07 -89.19 -22.01 39.51 
-91.01 -8.22 40.61 -96.1 23.87 13.99 -98.67 8.23 14.01 
-98.77 15.64 0 -98.98 8.11 -11.74 -52.35 -84.39 -11.73 
-56.58 -78.35 -25.71 -63.71 -75.79 -13.99 -89.1 -45.4 0 
-84.67 -51.34 -14.01 -91.77 -37.17 -13.99 -91.99 -29.6 -25.71 
-96.44 -23.71 -11.73 -12.92 -84.39 52.07 -6.63 -91.62 39.51 
-20.3 -89.1 40.61 -52.39 -84.02 13.99 -38.32 -91.3 14.01 
-45.4 -89.1 0 -38.3 -91.62 -11.74 64.08 -75.87 -11.73 
57.03 -78.02 -25.71 52.4 -84.02 -13.99 15.64 -98.77 0 
22.66 -96.39 -14.01 7 -98.77 -13.99 -0.28 -96.64 -25.71 
-7.25 -99.04 -11.73 76.27 -38.36 52.07 85.09 -34.62 39.51 
78.47 -46.84 40.61 63.71 -75.79 13.99 74.99 -64.66 14.01 
70.71 -70.71 0 75.3 -64.74 -11.74 91.96 37.5 -11.73 
91.82 30.13 -25.71 96.1 23.87 -13.99 98.77 -15.64 0 
98.67 -8.23 -14.01 96.1 -23.87 -13.99 91.82 -30.13 -25.71 
91.96 -37.5 -11.73 12.92 84.39 -52.07 2.31 78.35 -62.1 
15.98 75.79 -63.25 39.85 45.4 -79.69 25.34 51.34 -81.99 
28.53 37.17 -88.34 18.15 29.6 -93.78 32.63 23.71 -91.5 
-76.27 38.36 -52.07 -73.8 26.41 -62.1 -67.15 38.62 -63.25 
-30.86 51.93 -79.69 -41 39.96 -81.99 -26.54 38.62 -88.34 
-22.54 26.41 -93.78 -12.46 38.36 -91.5 -60.05 -60.68 -52.07 
-47.92 -62.02 -62.1 -57.48 -51.93 -63.25 -58.92 -13.31 -79.69 
-50.67 -26.64 -81.99 -44.93 -13.31 -88.34 -32.08 -13.28 -93.78 
-40.34 0 -91.5 39.16 -75.87 -52.07 44.18 -64.74 -62.1 
31.62 -70.71 -63.25 -5.55 -60.15 -79.69 9.68 -56.43 -81.99 
-1.23 -46.84 -88.34 2.72 -34.62 -93.78 -12.46 -38.36 -91.5 
84.25 13.8 -52.07 75.22 22.01 -62.1 77.02 8.22 -63.25 
55.49 -23.87 -79.69 56.65 -8.23 -81.99 44.17 -15.64 -88.34 
33.76 -8.11 -93.78 32.63 -23.71 -91.5 -32.63 23.71 91.5 
-28.53 37.17 88.34 -18.15 29.6 93.78 -2.72 34.62 93.78 
12.46 38.36 91.5 -32.63 -23.71 91.5 -44.17 -15.64 88.34 
-33.76 -8.11 93.78 -33.76 8.11 93.78 12.46 -38.36 91.5 
1.23 -46.84 88.34 -2.72 -34.62 93.78 -18.15 -29.6 93.78 
40.34 0 91.5 44.93 -13.31 88.34 32.08 -13.28 93.78 
22.54 -26.41 93.78 26.54 38.62 88.34 22.54 26.41 93.78 
32.08 13.28 93.78 52.35 84.39 11.73 63.71 75.79 13.99 
56.58 78.35 25.71 59.22 70.23 39.51 60.05 60.68 52.07 
7.25 99.04 11.73 15.64 98.77 0 22.87 96.64 11.74 
38.3 91.62 11.74 -12.92 84.39 52.07 -20.3 89.1 40.61 
-6.63 91.62 39.51 0.28 96.64 25.71 -91.96 37.5 11.73 
-89.1 45.4 0 -84.84 51.61 11.74 -75.3 64.74 11.74 
-64.08 75.87 11.73 -84.25 13.8 52.07 -91.01 8.22 40.61 
-89.19 22.01 39.51 -91.82 30.13 25.71 -64.08 -75.87 11.73 
-70.71 -70.71 0 -75.3 -64.74 11.74 -84.84 -51.61 11.74 
-91.96 -37.5 11.73 -39.16 -75.87 52.07 -35.95 -84.02 40.61 
-48.49 -78.02 39.51 -57.03 -78.02 25.71 52.35 -84.39 11.73 
45.4 -89.1 0 38.3 -91.62 11.74 22.87 -96.64 11.74 
7.25 -99.04 11.73 60.05 -60.68 52.07 68.8 -60.15 40.61 
59.22 -70.23 39.51 56.58 -78.35 25.71 96.44 23.71 11.73 
98.77 15.64 0 98.98 8.11 11.74 98.98 -8.11 11.74 
96.44 -23.71 11.73 39.16 75.87 -52.07 31.62 70.71 -63.25 
44.18 64.74 -62.1 48.45 51.61 -70.63 51.62 37.5 -77 
-60.05 60.68 -52.07 -57.48 51.93 -63.25 -47.92 62.02 -62.1 
-34.12 62.02 -70.63 -19.72 60.68 -77 -76.27 -38.36 -52.07 
-67.15 -38.62 -63.25 -73.8 -26.41 -62.1 -69.53 -13.28 -70.63 
-63.81 0 -77 12.92 -84.39 -52.07 15.98 -75.79 -63.25 
2.31 -78.35 -62.1 -8.86 -70.23 -70.63 -19.72 -60.68 -77 
84.25 -13.8 -52.07 77.02 -8.22 -63.25 75.22 -22.01 -62.1 
64.06 -30.13 -70.63 51.62 -37.5 -77 -66.68 48.44 56.63 
-62.41 61.56 48.11 -56.23 57.13 59.79 -44.18 64.74 62.1 
-31.62 70.71 63.25 -25.34 51.34 81.99 -21.01 64.66 73.33 
-15.98 75.79 63.25 -2.31 78.35 62.1 11.91 79.26 59.79 
25.47 78.38 56.63 -66.68 -48.44 56.63 -77.84 -40.34 48.11 
-71.7 -35.82 59.79 -75.22 -22.01 62.1 -77.02 -8.22 63.25 
-56.65 -8.23 81.99 -67.99 0 73.33 -77.02 8.22 63.25 
-75.22 22.01 62.1 -71.7 35.82 59.79 25.47 -78.38 56.63 
14.31 -86.49 48.11 11.91 -79.26 59.79 -2.31 -78.35 62.1 
-15.98 -75.79 63.25 -9.68 -56.43 81.99 -21.01 -64.66 73.33 
-31.62 -70.71 63.25 -44.18 -64.74 62.1 -56.23 -57.13 59.79 
82.42 0 56.63 86.68 -13.12 48.11 79.07 -13.17 59.79 
73.8 -26.41 62.1 67.15 -38.62 63.25 50.67 -26.64 81.99 
55 -39.96 73.33 57.48 -51.93 63.25 47.92 -62.02 62.1 
36.95 -71.13 59.79 36.95 71.13 59.79 47.92 62.02 62.1 
57.48 51.93 63.25 41 39.96 81.99 55 39.96 73.33 
67.15 38.62 63.25 73.8 26.41 62.1 79.07 13.17 59.79 
86.68 13.12 48.11 70.94 61.56 -34.31 80.47 48.44 -34.31 
78.63 57.13 -23.55 84.84 51.61 -11.74 89.1 45.4 0 
74.99 64.66 14.01 84.67 51.34 14.01 91.77 37.17 13.99 
91.99 29.6 25.71 90.27 21.3 37.39 -21.21 91.5 -34.31 
-14.31 86.49 -48.11 -7.63 92.43 -37.39 6.63 91.62 -39.51 
20.3 89.1 -40.61 22.66 96.39 -14.01 29.66 91.3 -28.01 
35.95 84.02 -40.61 48.49 78.02 -39.51 60.51 70.29 -37.39 
-60.51 70.29 37.39 -57.03 78.02 25.71 -52.4 84.02 13.99 
-29.66 91.3 28.01 -38.32 91.3 14.01 -45.4 89.1 0 
-38.3 91.62 -11.74 -30.03 92.43 -23.55 -36.63 86.49 -34.31 
[...]
POINT_DATA 40962
SCALARS sulc float
LOOKUP_TABLE default
-6.42435 -6.67771 2.81996 5.61248 -2.17612 -4.15595 2.37421 9.22752 -1.33445 
7.68036 3.0288 6.05984 -3.36458 6.56557 -2.19708 -1.22156 -8.72303 -4.42916 
9.42701 -1.46338 7.11109 -10.1072 -2.18927 1.57622 -2.20539 -6.52008 6.80034 
14.0736 5.03525 -5.91129 -4.89202 -3.53473 7.62264 5.54475 4.28038 -0.955129 
-0.98727 -4.98352 9.07277 6.52588 -2.01836 2.18881 2.69286 9.09972 11.7668 
7.83509 7.19163 10.7623 -5.86858 -3.11426 1.16192 6.39831 -3.15261 -2.59088 
-3.60122 1.4538 -3.22934 -1.594 8.48145 4.99959 10.7434 -7.78908 -6.95421 
-0.238596 -6.25897 7.3226 -0.285189 5.64051 5.49483 -10.2787 -5.73351 0.243123 
-7.05388 4.15785 3.19635 0.991242 3.81737 -4.93096 3.01475 -6.31232 1.28705 
-2.49815 -3.91776 5.27183 -5.27233 -0.882564 -3.42084 3.43828 -6.91171 -2.45084 
-2.5948 3.2362 -5.86217 7.515 8.52125 -2.36716 4.21295 8.2095 -5.72834 
2.40339 -0.804901 0.67799 0.758978 1.48942 8.22658 0.800786 1.96917 -1.95583 
-5.49705 1.49742 -2.5573 -0.329442 -0.733756 -2.30444 4.04417 1.38247 -9.14077 
-4.10005 1.92771 -7.17186 -6.16231 -4.1199 13.7317 3.5719 -2.87491 7.77238 
4.45044 6.02926 8.96106 -5.53852 0.191865 6.74172 -3.25695 7.68444 -0.0378939 
-8.00431 -0.557225 11.3037 1.74636 -6.10416 -0.00478721 5.1336 3.81134 -0.122155 
-2.10269 -0.809624 -4.04303 1.85304 6.18669 2.02431 -6.46983 3.44332 -7.4462 
-0.481885 6.50964 2.33072 0.507685 -5.98334 6.13956 8.58583 0.42072 -5.35418 
-1.30236 -1.23795 0.844988 1.24307 9.10075 4.28535 10.4853 -7.3222 2.79452 
8.42231 -3.89637 0.536773 -3.08867 9.38991 1.91639 3.97611 -0.131626 -2.94089 
0.205595 -8.98255 -9.49517 -0.783402 -3.41341 0.386276 -1.10839 3.81953 -6.36154 
-9.62896 -5.91697 1.1611 -1.49759 -6.13171 1.8995 4.99892 8.5612 -1.10157 
-1.90574 -5.21441 0.850587 -1.57759 2.40584 11.7468 4.71177 7.77822 -5.96653 
-6.18466 -1.56633 3.76217 3.88339 6.29116 -5.27091 1.58117 2.787 -6.40045 
-5.6905 -6.98052 -5.71736 5.55577 8.17018 10.1793 -0.510683 8.92985 4.71452 
8.28478 6.30912 -1.20243 -4.03453 5.46747 -6.02568 -0.382842 5.08879 13.7302 
-1.92058 0.70721 -6.03276 0.694984 -4.44638 -6.88059 -3.69983 7.60287 7.30072 
-3.2621 -5.54507 -4.52921 -8.77102 3.60926 2.13626 5.17369 -4.55893 0.570653 
2.15033 0.113773 1.91261 -7.04826 1.34384 -2.02869 -8.87665 -8.33478 -2.81198 
3.39817 6.7138 -2.99843 -0.0327573 -2.97903 -0.481687 -1.27207 -4.87135 9.40911 
-0.152408 9.66702 6.20887 8.97579 7.48108 8.44562 10.3992 -6.0784 -0.62309 
-3.52222 9.25379 9.77957 14.5848 6.1015 3.81045 11.8292 -3.49171 -3.24216 
7.91557 2.88405 1.54967 -5.54339 6.91475 -0.766916 -0.0952603 4.40336 -9.73516 
-4.67753 -2.53291 10.1335 4.2578 4.0941 -1.63009 -6.57986 3.11026 -3.51083 
4.22201 5.32583 8.03397 8.62691 -4.71936 -1.1793 -8.22582 -4.50184 -1.95673 
-1.38071 -1.98694 1.31958 0.257646 3.74807 0.506594 -0.73832 1.76874 -3.44943 
-4.32228 3.08052 4.62243 11.3406 -0.796414 6.79773 -3.59421 2.35363 -5.56533 
-6.22282 -10.8263 -6.7961 -9.31482 -5.38765 2.67142 -1.12712 -5.37567 2.45232 
0.451178 -4.84491 3.15495 -7.81444 6.53567 -2.07185 -3.16577 -1.50659 1.12033 
1.57301 -1.78034 1.38763 -1.92143 -5.22364 -1.58372 -1.87151 -4.21004 3.39005 
1.73992 8.34118 -1.19125 -1.86972 -3.14814 8.6916 -0.968241 -4.28525 -6.77302 
4.03459 11.3199 -2.27645 -1.45699 0.691673 1.06188 -2.61602 -8.2951 -1.42208 
9.21211 9.35577 11.7691 3.11862 -8.50586 0.0996656 -9.29698 -9.80775 -7.5819 
-0.535287 -0.473163 2.62976 -5.57894 -5.44967 -5.45945 -0.83724 0.311735 9.19609 
12.1401 7.2046 4.20536 -2.69518 1.19688 -4.87849 -0.247505 3.72225 0.672463 
3.97279 2.73725 -5.32848 -6.35614 11.0249 10.2075 1.00888 1.87447 -0.120912 
4.83152 -6.56451 -4.32793 3.01358 -0.848403 -3.67593 -0.780725 -1.82831 -0.8238 
1.24058 1.42938 -2.25427 -2.53703 -4.04122 -0.786856 -3.60364 -1.26521 0.161793 
9.41132 2.08496 7.7827 4.87359 1.12586 -5.65866 -3.98775 0.345711 -6.513 
-5.44708 -4.43231 -9.07883 -7.05058 -0.377135 -3.69806 -4.1376 0.530346 -1.79389 
4.70524 -3.6936 -8.42463 2.25746 0.174669 10.7556 12.6827 10.7876 1.78559 
-2.75281 -0.518057 3.55169 0.805566 1.04063 -7.75773 0.62572 3.10992 -0.0739885 
-7.18317 -0.639497 -4.00138 -7.63658 -0.133562 2.85262 -7.01947 -5.33862 -0.62603 
5.55832 6.01213 8.02091 10.4893 14.908 10.1558 -3.06362 3.38818 2.67472 
-2.33664 -2.53254 -8.04151 -8.35886 3.76867 -4.58904 -1.21487 3.56217 0.260175 
-2.8174 3.1693 -7.51346 2.1495 -6.94603 -0.519565 3.05081 0.880644 -3.07523 
-1.46433 0.0010516 2.7109 1.91345 4.05856 5.62018 8.1093 6.92026 -2.70387 
-2.18977 -3.02339 6.19361 -0.75071 -4.18474 -3.1274 -4.18761 -5.78124 2.62443 
1.64072 -7.88262 1.59431 -0.50776 -7.12005 0.161274 7.12996 6.67823 11.2512 
-6.37212 -5.48684 2.29138 -1.96324 8.84639 9.39678 7.6228 9.7371 2.2173 
5.7137 -8.14562 -0.853024 2.39371 3.97635 8.44978 3.41674 1.272 -3.17881 
-1.01378 2.02337 -4.31558 -1.95195 11.2722 -0.871664 8.14639 4.00153 -1.49428 
7.93346 8.79565 -0.237384 4.06444 10.9823 -0.00861408 2.57407 6.99605 -2.04927 
0.160039 8.74498 12.4078 3.82032 -2.61023 -6.05474 -4.95098 -5.8162 -6.01181 
-8.57028 -8.99856 0.222738 8.44839 4.54856 -1.42967 0.721183 7.79905 4.31033 
-2.59662 1.33768 1.82631 -0.060108 -0.0854016 -0.999201 2.37355 -1.64431 -1.97192 
-4.76482 -4.88875 -2.29723 2.98333 -2.29261 1.46991 1.54671 2.50539 -0.960765 
-9.7085 -3.91655 4.96735 0.356064 -3.24611 3.07071 -2.03341 -6.5071 -7.00945 
3.82497 -5.75272 -1.73453 5.41511 -1.21458 4.08101 2.2409 -7.32217 4.92417 
4.55977 3.52205 0.340096 -2.12844 4.40079 -7.31033 4.42756 -0.104883 -0.366359 
0.910613 6.62966 -3.3265 6.10835 -6.58817 -4.83536 3.1436 7.04669 10.5749 
8.92254 -6.31809 1.11677 -5.21929 -6.27624 -6.84296 -3.41155 -0.670712 -2.54592 
1.9484 -8.25043 -3.93458 -1.27024 -2.59879 0.575916 4.19787 7.28159 3.16509 
9.63613 8.16397 0.507509 -4.19592 -6.8089 -2.02733 -3.69655 -3.05463 1.88853 
-5.85965 1.46862 2.19541 -9.19895 -6.44946 -6.08958 -2.91531 -8.09566 1.78643 
3.81693 6.58102 -0.925282 -1.90218 -0.921106 3.88058 -1.53496 4.99471 7.66181 
11.3534 7.81692 3.14974 -0.242775 0.246768 6.54663 5.86172 7.85632 -4.02892 
-6.41159 -6.44337 -8.91718 -9.44498 -6.56953 -2.60286 2.88623 0.0869857 2.37622 
-2.61405 1.69095 8.81961 0.891951 1.07539 1.46338 3.04846 3.36604 -5.32167 
-0.259484 0.516289 6.1726 -4.15388 -4.48972 -4.48991 -8.66167 -9.32638 -5.42098 
-3.53713 9.68661 4.28233 -3.93765 -7.49697 -6.02942 -8.57682 1.24295 -1.1656 
-1.16647 -6.80742 -1.95466 -2.8351 -3.61544 -3.69097 -4.28789 -4.19395 -5.10954 
-1.75678 -5.91876 2.36204 4.2416 8.51946 4.02174 4.29627 -3.47531 -4.45108 
1.44385 -0.651503 11.2691 6.00393 12.6649 1.90846 7.19658 6.76372 10.2836 
8.67954 -6.47175 -7.76075 -9.086 13.9237 11.6421 13.9545 13.5766 -4.95365 
2.05732 -6.15967 -6.56939 1.03753 -2.76395 0.36365 -6.22613 8.18849 3.40985 
4.02535 1.57884 -3.06886 -5.82709 -0.415949 8.30234 7.94162 5.85972 2.06635 
4.16782 7.91072 3.77662 8.77872 7.02183 7.70954 8.31475 -3.73457 -5.92166 
-0.95737 0.73174 -0.550003 -2.1579 -0.907167 -0.0106551 4.25971 3.13332 3.32543 
-0.301945 -3.55198 -1.77675 -5.6249 5.80011 7.10044 11.237 8.94166 13.1918 
-0.466571 -5.72028 -2.45036 -5.38573 -12.9274 -10.8742 -10.0752 -8.42605 -0.620091 
-5.60497 -1.26679 4.47589 2.15532 -0.116817 -6.20824 -0.403318 5.38741 5.72493 
2.97442 -2.28297 1.05791 0.906812 -1.23842 -2.55336 -0.500357 -1.17771 -1.12431 
-1.92993 -0.315216 2.61256 6.44658 6.20063 0.714933 -6.29736 -7.72831 6.72367 
6.35852 10.192 3.1239 6.20083 3.80471 1.55043 6.74695 5.57832 11.2819 
7.10402 4.77377 5.43431 -0.98333 3.30602 9.53137 6.03687 5.89316 -1.99925 
-4.95768 -6.10137 -7.66214 9.06141 6.68071 10.1363 7.24048 9.61882 13.1083 
3.20887 7.16988 1.12531 -2.8417 -8.28589 -9.55916 -4.99872 -2.89872 -3.17366 
-5.27596 -9.29744 -4.21466 -4.33338 3.5076 -0.763659 -3.69309 -3.47457 -3.38118 
-5.79362 -2.34032 -4.79449 -2.61796 0.752781 3.69855 -3.63551 -7.84259 6.59907 
10.4542 6.64626 -2.8905 3.49846 -2.44915 -0.191257 -5.82464 -2.3749 -0.125623 
-5.18493 2.37417 -0.65909 1.25811 6.2901 -2.27187 2.58165 -4.02438 5.46336 
-2.28447 3.30719 -4.83132 -2.26856 7.67794 -0.486361 -1.38298 -8.41674 -3.25991 
-2.79665 3.68107 -4.78341 -4.12343 -7.93331 -3.08965 -4.5085 1.1307 -0.875682 
3.89787 -3.62943 -6.31884 -5.31617 -7.02013 -2.33599 -7.56453 -6.70429 0.94391 
-0.172864 -1.66376 3.37036 0.371188 -1.66135 -3.20128 -1.27743 -6.51499 -3.27835 
-4.79352 -5.89971 -3.68429 -3.29778 -2.76845 -6.89261 7.59101 8.56305 5.29813 
-3.40039 0.749163 -2.48415 2.86407 -4.45814 0.264041 1.43586 2.14846 3.76843 
-1.58027 -1.83238 -8.85263 -7.97537 0.546569 -4.79609 -4.39875 -6.73334 -2.11895 
-6.89717 -1.45468 -6.54926 -2.15911 -1.70677 -2.21529 7.22046 5.34692 4.19735 
-0.724237 -3.1554 -4.6383 -6.39467 -8.79568 6.84095 1.50199 8.543 13.1232 
12.5279 3.63449 5.64383 10.2859 -0.787724 -3.48617 2.65235 3.66911 -6.68243 
-7.0669 -4.49284 -3.23871 -0.465422 -4.35001 0.878748 1.42322 2.94472 0.113946 
3.53217 6.34815 7.34648 6.58044 2.73995 3.9358 1.28129 -6.58089 2.20811 
1.97409 -4.75147 -7.43013 -5.0203 -7.92169 -6.37745 -5.18873 0.126324 3.17299 
-4.83928 -6.75222 -4.03857 -0.10261 -6.22617 -1.80665 -3.76378 -0.242774 3.03394 
2.38539 -4.50389 2.89255 0.705974 3.57633 5.52384 8.51112 8.03533 10.7593 
13.3358 12.419 11.7833 13.414 7.3731 5.04554 -2.29767 -0.403771 1.10862 
-2.09563 -1.68715 -0.983355 -2.79908 -5.52227 -4.76179 -9.91876 -5.38656 -8.99542 
-9.2935 -4.77756 -0.924273 0.733513 -0.332179 -3.4013 1.5152 0.377271 0.911774 
-1.03037 0.197212 6.64587 5.9914 3.46176 -0.279886 -4.48849 -4.69615 7.36486 
6.65551 2.97473 -1.96379 -5.21301 -1.9576 -1.82625 -4.14051 -2.1289 -7.58758 
-4.76343 -6.03304 -3.46061 -2.69568 -2.14208 0.264888 -0.62791 -0.0557724 1.62027 
1.68686 2.93473 -0.542275 0.117315 -2.0798 0.229213 3.79053 5.98 0.266122 
3.41387 5.83247 7.68952 6.55618 -3.12191 3.27115 4.06967 6.53082 5.34327 
-7.50758 -8.45895 -5.34769 3.3487 6.33052 4.57461 4.32767 -0.918223 0.292181 
-6.7287 -1.92688 -9.31789 -6.254 -7.58213 -6.6275 -8.21445 -8.54943 -8.07258 
6.12775 3.81353 3.31637 -1.51602 5.76217 3.5233 4.57019 -8.76482 -5.30068 
-5.03102 -3.00952 -0.150272 2.25653 -4.77493 4.94107 -6.27176 -3.9049 -7.79973 
-3.41293 -0.654511 4.88397 -0.439352 -8.15221 2.23572 -0.669359 1.58526 0.874213 
-1.87894 2.03549 1.77043 -2.51432 2.15382 2.68987 8.42407 11.0082 10.7535 
9.91325 6.28446 3.61039 2.61298 7.3619 2.25248 3.75536 3.32775 12.1983 
6.859 10.6701 8.23983 12.9584 -6.4713 -8.78631 -8.21157 2.7885 2.4482 
5.62001 1.38072 6.72571 -3.62945 -2.92331 -1.96539 13.3766 12.2604 9.76145 
5.8081 5.82837 0.944352 5.19391 6.1023 0.264789 1.13792 -4.1788 -3.24344 
-7.06161 -5.05792 7.97825 12.772 4.68303 4.47567 -2.2924 8.57942 7.57479 
10.9479 9.59293 8.98289 4.81179 -0.830198 3.90405 3.7422 9.04668 -0.496472 
6.08343 2.12248 4.32109 -2.42516 -5.07568 -6.93729 -7.87861 9.1358 9.13619 
2.82564 8.39081 6.16948 8.80072 6.89348 -1.16696 -8.29916 -1.83813 -2.86701 
2.43448 0.892121 2.34158 -4.45128 0.503262 -4.83896 -2.78176 4.69406 10.9029 
7.20262 8.86944 -1.84331 -4.34437 -5.56594 -3.48879 0.5557 3.87416 1.31695 
-5.82484 -6.62281 -5.9544 -5.19378 -5.78506 -2.04052 -7.63217 -4.16465 0.0277603 
1.22316 4.9754 7.40267 2.67605 4.06718 6.70491 5.15048 4.32993 8.32792 
0.685129 -4.25098 -0.575016 -2.34444 -2.67509 2.78836 3.15202 6.01487 6.47692 
8.866 5.47277 1.404 2.43402 4.80331 -0.528068 4.60776 7.92353 -2.2835 
-2.481 -2.20375 -0.905882 -0.0301101 0.152435 -0.734945 0.608245 0.193473 -0.632905 
0.0817285 -2.342 -2.08663 -2.74608 -2.43801 -3.95692 -5.95244 -5.48589 -1.04745 
0.561535 -1.4258 -4.18163 -5.08441 -5.25896 0.912935 -4.27303 -3.39077 -2.56315 
-0.459508 0.0631589 1.92623 0.0827553 -1.1415 3.05714 7.65749 4.14167 7.27221 
4.40361 3.63184 -3.09614 0.212212 -5.50174 -8.9284 -5.66738 -3.42057 -3.48992 
-0.357762 -6.34733 2.61151 1.94725 7.76205 4.51924 -3.31148 -1.92093 0.644639 
-7.13726 -10.6806 -6.43773 -5.96539 -6.96609 1.37413 -1.06996 -4.40855 -9.62036 
-3.3301 -6.26753 2.13927 5.48875 3.15181 0.484936 -5.70296 -1.95396 4.91174 
3.76851 8.73478 3.13168 10.3967 -1.62208 -3.15171 -4.41113 -3.16883 -4.8399 
3.39896 9.75847 7.50181 4.47127 7.15369 -2.763 -1.44306 0.926589 5.09778 
4.14337 3.98793 7.10977 3.90762 -4.18441 -6.73204 -6.33527 -1.44001 -0.87334 
-4.8685 -8.42709 -4.38469 6.58198 -0.368695 3.93772 -1.04561 5.48772 7.48896 
6.63472 2.32611 -3.27148 -1.71285 -3.83995 -0.0652124 -1.41857 -3.17814 -4.31371 
-2.0039 -4.92978 -1.52201 -0.0962669 1.8421 0.0373678 3.90501 3.15177 -4.83517 
6.18979 5.85115 10.4364 4.15788 3.01753 -5.85678 7.48688 1.10711 6.58534 
6.51332 8.08304 1.68471 -6.68476 -6.81446 -1.02774 5.86352 10.9831 11.0688 
4.22146 4.23789 10.7685 9.81087 10.4046 10.2369 -6.76201 -5.52432 -4.14153 
3.77783 10.9975 5.82279 2.19312 1.78069 -0.816003 -0.640808 0.618995 -3.13528 
7.73036 6.07666 4.22644 -3.46572 -2.21693 -5.98201 2.54355 8.18685 -0.00703524 
0.00444143 -4.15483 -3.62729 -8.20797 -10.1814 -5.87145 -7.80531 -3.87625 -5.62766 
-5.50465 1.61078 5.28484 -0.825946 5.84543 0.26967 0.0465199 -3.52046 -9.27348 
-9.53989 -6.63181 -0.792057 2.96616 -5.03579 -7.21634 -7.06361 -8.40002 3.47967 
-1.73136 -0.300885 7.55284 7.25339 -1.94642 -4.38166 -2.77637 -4.22247 -7.58399 
-2.79301 0.216457 -2.61801 -2.53933 -2.97979 11.0801 5.7128 9.95243 7.96326 
3.09781 -5.4324 -0.33508 -6.16664 -3.17681 -5.54164 -0.676075 0.853699 3.54385 
6.00842 7.53293 -6.60456 -8.29363 -7.7324 0.846719 6.75098 0.188743 -0.95431 
-6.12414 -6.86649 -0.866424 -1.21295 -4.73258 1.54952 5.61235 10.6959 8.66868 
9.04833 5.98518 1.23469 11.3375 6.35099 9.55743 8.72532 5.61775 3.75274 
7.90366 2.11057 -1.61928 -3.11309 -1.69007 0.962393 2.29887 -6.23886 -2.50475 
-3.64881 1.94744 5.84379 9.15382 9.78104 11.0819 0.766661 2.34501 -0.0396314 
-2.94988 -3.848 6.55016 2.79556 -0.310836 -10.2433 -8.37039 -7.83839 -5.73049 
-2.08565 8.81054 10.5558 8.85568 3.18944 3.952 0.0821784 -4.49825 -6.63688 
-5.28455 -7.97959 -5.98502 -6.42976 2.54253 1.00227 0.351624 5.82715 7.68427 
-2.20864 -2.10556 -1.55255 0.580759 -0.521402 0.987977 -2.66582 -3.72977 -3.04327 
-9.21696 -4.59673 -5.21508 -2.37417 0.659616 -2.94008 -6.97708 -9.84884 -5.1836 
-4.40359 -3.65085 0.615384 6.03007 5.17712 3.0211 -0.0367654 -1.88727 -4.94692 
6.61569 4.58667 1.53959 -5.74273 -7.49679 -3.14788 -5.83725 -5.40885 7.74476 
5.622 3.57578 2.98422 7.85753 9.94831 10.9738 9.28846 8.5301 7.23056 
6.12876 8.71225 11.9467 12.5834 -4.72254 -4.74108 -4.54558 -1.57279 -0.11758 
4.0348 0.705541 5.80063 13.9645 12.4875 7.92515 11.2554 10.0597 4.54505 
5.50355 8.88995 6.71894 -0.060503 3.83308 7.5914 1.93592 4.84231 6.85675 
6.36898 2.60324 -1.64008 -7.01223 4.57933 -2.80339 1.27845 0.112142 8.67091 
6.03454 -2.17978 -0.698668 -6.35498 -4.41828 -5.9223 1.28998 1.70819 11.5015 
10.5731 8.41156 6.26424 1.9145 -4.88134 -4.21836 0.466904 0.383407 -5.92716 
-0.98463 -3.70392 -1.95502 -0.960752 5.00349 6.40899 7.34309 7.19204 7.77879 
2.12129 -0.080091 -1.16859 -2.86145 -2.38406 -5.8829 -6.79371 2.9377 -2.45627 
-1.67149 -1.94026 -1.67611 -0.691377 1.36739 1.54635 3.2385 1.83264 -0.650889 
-2.57624 1.54237 1.58221 -2.13777 1.26407 -3.9406 0.0120919 -2.47155 -2.69511 
3.08046 5.5895 4.16584 7.89451 7.89357 4.31575 6.24071 4.31654 -1.55519 
-7.6569 0.376051 -5.86764 -3.90319 -3.32971 -4.93542 -12.5742 -14.6733 -9.39615 
-1.4303 -4.83102 -4.71631 -6.90051 -1.42995 2.60003 0.408438 -3.49852 -3.40701 
0.100924 -0.692406 0.604398 2.02462 -4.92477 -3.05247 1.70747 -2.69101 -0.988811 
-4.8735 5.97918 4.64379 5.20222 -1.85259 -5.52134 3.29154 -2.99975 -2.04742 
4.97056 1.18721 0.0130988 -0.644776 2.13705 0.0623126 -2.40734 -5.26747 -2.87568 
-0.871129 -0.603017 1.53063 -3.8879 -0.469583 -1.54809 -1.93483 -2.39813 2.8818 
7.42149 8.92084 -1.95842 -8.18118 -7.0508 -1.76575 2.90482 -2.08998 3.96145 
8.50809 1.54051 -2.95175 -3.73058 -6.01672 -5.13178 -5.98976 -2.04866 5.26778 
11.7423 12.255 12.2782 8.89663 1.56542 -7.97328 -2.25248 -5.5983 -5.64486 
-6.08606 5.17656 2.07274 -7.56698 -7.10423 -7.26851 -0.306116 -1.94231 -2.76399 
-5.02586 0.923598 2.68637 4.33252 5.90598 7.68016 -0.710854 3.21477 4.64088 
10.8395 9.74083 11.3988 8.82718 7.66739 1.00578 -3.86198 -4.19018 2.6844 
-1.59339 -5.80992 -3.20375 -5.60521 -9.17999 -7.56443 -8.27636 -9.54647 -11.4655 
-5.49706 -6.38327 0.879234 4.85509 -2.54204 3.89468 -2.83558 -3.67664 -6.42846 
-8.87965 1.96094 2.69937 -4.97318 -2.98746 6.47075 -3.38237 3.44783 5.61493 
-3.14375 -5.39446 13.3861 14.1641 11.6919 11.3092 9.78242 1.85267 6.29541 
9.42681 5.4126 0.393248 2.9668 -5.44625 -7.95534 -2.56933 0.461657 1.10758 
-2.48658 4.15108 4.67134 6.89446 11.022 2.40151 -2.21075 0.879673 6.72016 
4.88126 -6.09181 -1.95752 1.49085 -4.978 -6.55009 -6.20889 10.8479 2.06045 
0.466163 6.19016 9.95325 -6.55915 2.75157 9.17485 7.67618 5.91582 2.93646 
2.81982 -0.0549303 -0.870031 -1.89658 -5.89396 -7.72263 -7.88176 -4.50479 -0.77112 
3.74371 4.23943 4.22844 -1.33275 -4.38919 2.63129 -3.71769 0.799548 3.00276 
-3.33856 -4.67031 1.06161 1.93502 2.67369 2.82799 0.221856 2.17294 0.0521982 
-0.444614 -1.1038 -0.688166 0.861854 -2.62487 -1.85 -0.78636 -1.77023 1.64813 
-3.44504 0.712514 0.734062 1.46869 2.18109 3.14697 9.23376 2.80444 7.82087 
6.06999 5.08245 3.3295 6.57618 3.80911 1.63118 -0.457556 -1.61619 -6.45525 
-0.348693 -3.53472 2.38363 -3.59266 -0.550787 -4.94059 -6.89022 -1.26283 -2.7148 
0.573656 1.2266 -2.01771 -4.46963 -7.15621 -1.92194 -4.09361 -1.59636 5.19078 
3.031 0.737657 -5.10886 -3.33139 -0.769319 -1.95577 -1.15092 -1.92621 1.09273 
2.24684 2.72062 1.30494 -1.65234 -2.00851 -5.72475 -6.89545 -6.7648 3.02878 
7.15269 -3.06118 4.21925 9.8298 9.09564 11.5449 8.00047 2.00071 8.14581 
9.77973 -1.97245 4.47606 8.29288 9.73399 4.87195 0.401803 -4.73873 -4.1835 
0.376221 -1.86692 4.14377 -0.432372 4.36133 9.05188 7.4298 -3.12459 -8.62746 
-3.36065 -2.9447 -2.30863 4.98694 2.16128 -0.736588 -1.27365 -0.803744 -5.06608 
-7.08766 -6.54372 -6.05043 0.0965039 -2.56144 -5.48683 -6.17753 -7.1368 -6.69025 
-0.130428 -4.54589 -7.1388 2.39032 -2.69395 -7.867 -5.26801 -4.19104 -1.58922 
-6.6864 -3.38997 -4.60283 -2.98242 -8.10331 -5.21025 -1.28756 1.21045 4.1922 
6.6048 3.70517 6.3749 4.52159 4.41312 6.88755 5.56452 5.28348 7.59498 
9.20797 11.9378 12.8147 11.6319 13.9597 14.3352 9.68709 7.49707 1.99591 
-0.182529 5.1957 2.47706 -0.0715224 0.255359 3.07615 -2.78969 -0.838883 1.60313 
1.55964 5.19708 -8.78996 -7.11363 -5.2724 -5.04695 -8.14071 -5.89947 -5.39441 
2.71026 5.50126 1.70825 -2.72549 -0.824099 -4.488 -0.455364 -2.04318 -0.821115 
2.80582 -0.727738 -3.83507 1.80492 8.55571 5.31482 2.08625 -0.815573 -6.72726 
-7.4932 6.91063 4.93931 -1.689 -2.26342 -5.38504 -5.62543 -6.09959 -1.60104 
-1.98932 3.39193 -0.58226 -4.13507 -9.04712 -2.40017 2.6996 2.2091 -2.84153 
0.736786 -1.25288 -2.91334 -3.56497 -3.62747 -3.27324 1.07542 -1.43135 -3.12383 
-1.44294 0.388027 1.51359 0.521502 6.35771 7.31712 3.18425 7.08124 5.6143 
-1.20901 3.11474 1.20946 1.90152 3.86938 7.16409 6.45312 7.24187 8.36375 
6.22846 2.82764 4.97526 5.05652 -3.0167 -6.99824 -3.83507 0.601625 2.31059 
1.0345 5.10859 2.34393 -4.31394 -7.1886 -4.57844 1.77141 -2.39617 -1.25666 
-0.997425 1.26001 -3.94075 -5.468 -4.66063 -7.35132 -5.17693 -1.86319 -1.10674 
-0.873232 -0.65006 -0.150448 -3.86011 -4.82802 -8.02963 -0.992458 -4.03557 -10.7258 
-4.45593 0.84279 1.44951 0.221641 -5.90787 -6.59646 2.10896 -4.00708 -6.32288 
-0.156133 1.78969 2.86426 5.63199 8.95649 11.2542 2.1602 8.31574 12.894 
10.84 7.16581 9.74392 -1.99857 1.92524 -4.63269 -3.31046 0.587358 1.38598 
-4.04796 -6.11458 -1.98072 2.33268 7.85338 13.8617 12.4836 10.8363 7.01646 
8.58093 10.1566 10.2182 10.335 9.99161 10.2386 5.73917 1.58772 4.8047 
3.29305 1.07322 4.20123 6.14683 -8.34276 -6.08328 -5.59362 -2.3163 -5.47752 
-5.08451 -6.83572 -6.23139 -4.43279 -6.55214 0.550546 3.82346 6.04474 9.14125 
9.43411 6.89359 2.33396 -2.2971 -6.06399 -5.6687 -7.67085 5.04648 -0.741611 
-8.85148 -7.14174 -4.65948 0.977397 2.73633 -3.99515 -4.80945 -3.93202 5.5345 
2.77346 8.83468 8.51691 7.85942 4.77498 -2.43468 2.10296 4.08953 3.79383 