# vtk DataFile Version 5.1
vtk output
ASCII
DATASET POLYDATA
POINTS 40962 float
0 0 100 27.64 -85.07 44.72 89.44 0 44.72 
27.64 85.07 44.72 -72.36 52.57 44.72 -72.36 -52.57 44.72 
-27.64 -85.07 -44.72 72.36 -52.57 -44.72 72.36 52.57 -44.72 
-27.64 85.07 -44.72 -89.44 0 -44.72 0 0 -100 
-42.53 30.9 85.07 -26.29 80.9 52.57 16.25 50 85.07 
-42.53 -30.9 85.07 -85.07 0 52.57 16.25 -50 85.07 
-26.29 -80.9 52.57 52.57 0 85.07 68.82 -50 52.57 
68.82 50 52.57 58.78 80.9 0 95.11 30.9 0 
0 100 0 26.29 80.9 -52.57 -58.78 80.9 0 
-95.11 30.9 0 -68.82 50 -52.57 -95.11 -30.9 0 
-58.78 -80.9 0 -68.82 -50 -52.57 0 -100 0 
58.78 -80.9 0 26.29 -80.9 -52.57 95.11 -30.9 0 
85.07 0 -52.57 -16.25 50 -85.07 42.53 30.9 -85.07 
-52.57 0 -85.07 -16.25 -50 -85.07 42.53 -30.9 -85.07 
-22.11 16.06 96.19 -13.82 42.53 89.44 8.44 25.99 96.19 
-22.11 -16.06 96.19 -44.72 0 89.44 8.44 -25.99 96.19 
-13.82 -42.53 89.44 27.33 0 96.19 36.18 -26.29 89.44 
36.18 26.29 89.44 44.92 86.27 23.25 67.08 68.82 27.64 
50.14 70.2 50.57 14.37 96.19 23.25 30.9 95.11 0 
0.7 86.27 50.57 -13.82 95.11 27.64 -87.05 43.39 23.25 
-80.9 58.78 0 -68.16 69.38 23.25 -81.83 27.33 50.57 
-94.72 16.25 27.64 -68.16 -69.38 23.25 -80.9 -58.78 0 
-87.05 -43.39 23.25 -51.28 -69.38 50.57 -44.72 -85.07 27.64 
44.92 -86.27 23.25 30.9 -95.11 0 14.37 -96.19 23.25 
50.14 -70.2 50.57 67.08 -68.82 27.64 95.93 16.06 23.25 
100 0 0 95.93 -16.06 23.25 51.28 69.38 -50.57 
36.18 58.78 -72.36 59.72 43.39 -67.46 -50.14 70.2 -50.57 
-44.72 52.57 -72.36 -22.81 70.2 -67.46 -82.26 -25.99 -50.57 
-63.82 -26.29 -72.36 -73.82 0 -67.46 -0.7 -86.27 -50.57 
5.28 -68.82 -72.36 -22.81 -70.2 -67.46 81.83 -27.33 -50.57 
67.08 -16.25 -72.36 59.72 -43.39 -67.46 -59.72 43.39 67.46 
-51.28 69.38 50.57 -36.18 58.78 72.36 -5.28 68.82 72.36 
22.81 70.2 67.46 -59.72 -43.39 67.46 -81.83 -27.33 50.57 
-67.08 -16.25 72.36 -67.08 16.25 72.36 22.81 -70.2 67.46 
0.7 -86.27 50.57 -5.28 -68.82 72.36 -36.18 -58.78 72.36 
73.82 0 67.46 82.26 -25.99 50.57 63.82 -26.29 72.36 
44.72 -52.57 72.36 44.72 52.57 72.36 63.82 26.29 72.36 
82.26 25.99 50.57 68.16 69.38 -23.25 87.05 43.39 -23.25 
80.9 58.78 0 86.18 42.53 27.64 -14.37 96.19 -23.25 
-0.7 86.27 -50.57 13.82 95.11 -27.64 44.72 85.07 -27.64 
-44.72 85.07 27.64 -30.9 95.11 0 -44.92 86.27 -23.25 
-95.93 16.06 -23.25 -82.26 25.99 -50.57 -86.18 42.53 -27.64 
-67.08 68.82 -27.64 -94.72 -16.25 27.64 -100 0 0 
-95.93 -16.06 -23.25 -44.92 -86.27 -23.25 -50.14 -70.2 -50.57 
-67.08 -68.82 -27.64 -86.18 -42.53 -27.64 -13.82 -95.11 27.64 
-30.9 -95.11 0 -14.37 -96.19 -23.25 68.16 -69.38 -23.25 
51.28 -69.38 -50.57 44.72 -85.07 -27.64 13.82 -95.11 -27.64 
86.18 -42.53 27.64 80.9 -58.78 0 87.05 -43.39 -23.25 
81.83 27.33 -50.57 94.72 16.25 -27.64 94.72 -16.25 -27.64 
5.28 68.82 -72.36 13.82 42.53 -89.44 -8.44 25.99 -96.19 
22.11 16.06 -96.19 -63.82 26.29 -72.36 -36.18 26.29 -89.44 
-27.33 0 -96.19 -44.72 -52.57 -72.36 -36.18 -26.29 -89.44 
-8.44 -25.99 -96.19 36.18 -58.78 -72.36 13.82 -42.53 -89.44 
22.11 -16.06 -96.19 67.08 16.25 -72.36 44.72 0 -89.44 
-11.16 8.11 99.04 -6.92 21.3 97.46 4.26 13.12 99.04 
-11.16 -8.11 99.04 -22.4 0 97.46 4.26 -13.12 99.04 
-6.92 -21.3 97.46 13.8 0 99.04 18.12 -13.17 97.46 
18.12 13.17 97.46 36.63 86.49 34.31 48.15 79.26 37.39 
39.26 78.38 48.11 21.21 91.5 34.31 30.03 92.43 23.55 
14.31 86.49 48.11 7.63 92.43 37.39 -80.47 48.44 34.31 
-78.63 57.13 23.55 -70.94 61.56 34.31 -77.84 40.34 48.11 
-85.55 35.82 37.39 -70.94 -61.56 34.31 -78.63 -57.13 23.55 
-80.47 -48.44 34.31 -62.41 -61.56 48.11 -60.51 -70.29 37.39 
36.63 -86.49 34.31 30.03 -92.43 23.55 21.21 -91.5 34.31 
39.26 -78.38 48.11 48.15 -79.26 37.39 93.58 8.11 34.31 
97.19 0 23.55 93.58 -8.11 34.31 62.41 61.56 -48.11 
56.23 57.13 -59.79 66.68 48.44 -56.63 -39.26 78.38 -48.11 
-36.95 71.13 -59.79 -25.47 78.38 -56.63 -86.68 -13.12 -48.11 
-79.07 -13.17 -59.79 -82.42 0 -56.63 -14.31 -86.49 -48.11 
-11.91 -79.26 -59.79 -25.47 -78.38 -56.63 77.84 -40.34 -48.11 
71.7 -35.82 -59.79 66.68 -48.44 -56.63 -51.62 37.5 77 
-48.45 51.61 70.63 -39.85 45.4 79.69 1.23 46.84 88.34 
-9.68 56.43 81.99 5.55 60.15 79.69 8.86 70.23 70.63 
19.72 60.68 77 -51.62 -37.5 77 -64.06 -30.13 70.63 
-55.49 -23.87 79.69 -44.17 15.64 88.34 -56.65 8.23 81.99 
-55.49 23.87 79.69 -64.06 30.13 70.63 19.72 -60.68 77 
8.86 -70.23 70.63 5.55 -60.15 79.69 -28.53 -37.17 88.34 
-25.34 -51.34 81.99 -39.85 -45.4 79.69 -48.45 -51.61 70.63 
63.81 0 77 69.53 -13.28 70.63 58.92 -13.31 79.69 
26.54 -38.62 88.34 41 -39.96 81.99 30.86 -51.93 79.69 
34.12 -62.02 70.63 34.12 62.02 70.63 30.86 51.93 79.69 
44.93 13.31 88.34 50.67 26.64 81.99 58.92 13.31 79.69 
69.53 13.28 70.63 64.08 75.87 -11.73 75.3 64.74 -11.74 
70.71 70.71 0 68.8 60.15 40.61 77.66 56.43 28.01 
78.47 46.84 40.61 85.09 34.62 39.51 76.27 38.36 52.07 
-7.25 99.04 -11.73 -0.28 96.64 -25.71 7 98.77 -13.99 
45.4 89.1 0 38.32 91.3 -14.01 52.39 84.02 -13.99 
57.03 78.02 -25.71 -39.16 75.87 52.07 -48.49 78.02 39.51 
-35.95 84.02 40.61 -7 98.77 13.99 -22.66 96.39 14.01 
-15.64 98.77 0 -22.87 96.64 -11.74 -96.44 23.71 -11.73 
-91.99 29.6 -25.71 -91.77 37.17 -13.99 -70.71 70.71 0 
-74.99 64.66 -14.01 -63.71 75.79 -13.99 -56.58 78.35 -25.71 
-52.35 84.39 -11.73 -84.25 -13.8 52.07 -89.19 -22.01 39.51 
-91.01 -8.22 40.61 -96.1 23.87 13.99 -98.67 8.23 14.01 
-98.77 15.64 0 -98.98 8.11 -11.74 -52.35 -84.39 -11.73 
-56.58 -78.35 -25.71 -63.71 -75.79 -13.99 -89.1 -45.4 0 
-84.67 -51.34 -14.01 -91.77 -37.17 -13.99 -91.99 -29.6 -25.71 
-96.44 -23.71 -11.73 -12.92 -84.39 52.07 -6.63 -91.62 39.51 
-20.3 -89.1 40.61 -52.39 -84.02 13.99 -38.32 -91.3 14.01 
-45.4 -89.1 0 -38.3 -91.62 -11.74 64.08 -75.87 -11.73 
57.03 -78.02 -25.71 52.4 -84.02 -13.99 15.64 -98.77 0 
22.66 -96.39 -14.01 7 -98.77 -13.99 -0.28 -96.64 -25.71 
-7.25 -99.04 -11.73 76.27 -38.36 52.07 85.09 -34.62 39.51 
78.47 -46.84 40.61 63.71 -75.79 13.99 74.99 -64.66 14.01 
70.71 -70.71 0 75.3 -64.74 -11.74 91.96 37.5 -11.73 
91.82 30.13 -25.71 96.1 23.87 -13.99 98.77 -15.64 0 
98.67 -8.23 -14.01 96.1 -23.87 -13.99 91.82 -30.13 -25.71 
91.96 -37.5 -11.73 12.92 84.39 -52.07 2.31 78.35 -62.1 
15.98 75.79 -63.25 39.85 45.4 -79.69 25.34 51.34 -81.99 
28.53 37.17 -88.34 18.15 29.6 -93.78 32.63 23.71 -91.5 
-76.27 38.36 -52.07 -73.8 26.41 -62.1 -67.15 38.62 -63.25 
-30.86 51.93 -79.69 -41 39.96 -81.99 -26.54 38.62 -88.34 
-22.54 26.41 -93.78 -12.46 38.36 -91.5 -60.05 -60.68 -52.07 
-47.92 -62.02 -62.1 -57.48 -51.93 -63.25 -58.92 -13.31 -79.69 
-50.67 -26.64 -81.99 -44.93 -13.31 -88.34 -32.08 -13.28 -93.78 
-40.34 0 -91.5 39.16 -75.87 -52.07 44.18 -64.74 -62.1 
31.62 -70.71 -63.25 -5.55 -60.15 -79.69 9.68 -56.43 -81.99 
-1.23 -46.84 -88.34 2.72 -34.62 -93.78 -12.46 -38.36 -91.5 
84.25 13.8 -52.07 75.22 22.01 -62.1 77.02 8.22 -63.25 
55.49 -23.87 -79.69 56.65 -8.23 -81.99 44.17 -15.64 -88.34 
33.76 -8.11 -93.78 32.63 -23.71 -91.5 -32.63 23.71 91.5 
-28.53 37.17 88.34 -18.15 29.6 93.78 -2.72 34.62 93.78 
12.46 38.36 91.5 -32.63 -23.71 91.5 -44.17 -15.64 88.34 
-33.76 -8.11 93.78 -33.76 8.11 93.78 12.46 -38.36 91.5 
1.23 -46.84 88.34 -2.72 -34.62 93.78 -18.15 -29.6 93.78 
40.34 0 91.5 44.93 -13.31 88.34 32.08 -13.28 93.78 
22.54 -26.41 93.78 26.54 38.62 88.34 22.54 26.41 93.78 
32.08 13.28 93.78 52.35 84.39 11.73 63.71 75.79 13.99 
56.58 78.35 25.71 59.22 70.23 39.51 60.05 60.68 52.07 
7.25 99.04 11.73 15.64 98.77 0 22.87 96.64 11.74 
38.3 91.62 11.74 -12.92 84.39 52.07 -20.3 89.1 40.61 
-6.63 91.62 39.51 0.28 96.64 25.71 -91.96 37.5 11.73 
-89.1 45.4 0 -84.84 51.61 11.74 -75.3 64.74 11.74 
-64.08 75.87 11.73 -84.25 13.8 52.07 -91.01 8.22 40.61 
-89.19 22.01 39.51 -91.82 30.13 25.71 -64.08 -75.87 11.73 
-70.71 -70.71 0 -75.3 -64.74 11.74 -84.84 -51.61 11.74 
-91.96 -37.5 11.73 -39.16 -75.87 52.07 -35.95 -84.02 40.61 
-48.49 -78.02 39.51 -57.03 -78.02 25.71 52.35 -84.39 11.73 
45.4 -89.1 0 38.3 -91.62 11.74 22.87 -96.64 11.74 
7.25 -99.04 11.73 60.05 -60.68 52.07 68.8 -60.15 40.61 
59.22 -70.23 39.51 56.58 -78.35 25.71 96.44 23.71 11.73 
98.77 15.64 0 98.98 8.11 11.74 98.98 -8.11 11.74 
96.44 -23.71 11.73 39.16 75.87 -52.07 31.62 70.71 -63.25 
44.18 64.74 -62.1 48.45 51.61 -70.63 51.62 37.5 -77 
-60.05 60.68 -52.07 -57.48 51.93 -63.25 -47.92 62.02 -62.1 
-34.12 62.02 -70.63 -19.72 60.68 -77 -76.27 -38.36 -52.07 
-67.15 -38.62 -63.25 -73.8 -26.41 -62.1 -69.53 -13.28 -70.63 
-63.81 0 -77 12.92 -84.39 -52.07 15.98 -75.79 -63.25 
2.31 -78.35 -62.1 -8.86 -70.23 -70.63 -19.72 -60.68 -77 
84.25 -13.8 -52.07 77.02 -8.22 -63.25 75.22 -22.01 -62.1 
64.06 -30.13 -70.63 51.62 -37.5 -77 -66.68 48.44 56.63 
-62.41 61.56 48.11 -56.23 57.13 59.79 -44.18 64.74 62.1 
-31.62 70.71 63.25 -25.34 51.34 81.99 -21.01 64.66 73.33 
-15.98 75.79 63.25 -2.31 78.35 62.1 11.91 79.26 59.79 
25.47 78.38 56.63 -66.68 -48.44 56.63 -77.84 -40.34 48.11 
-71.7 -35.82 59.79 -75.22 -22.01 62.1 -77.02 -8.22 63.25 
-56.65 -8.23 81.99 -67.99 0 73.33 -77.02 8.22 63.25 
-75.22 22.01 62.1 -71.7 35.82 59.79 25.47 -78.38 56.63 
14.31 -86.49 48.11 11.91 -79.26 59.79 -2.31 -78.35 62.1 
-15.98 -75.79 63.25 -9.68 -56.43 81.99 -21.01 -64.66 73.33 
-31.62 -70.71 63.25 -44.18 -64.74 62.1 -56.23 -57.13 59.79 
82.42 0 56.63 86.68 -13.12 48.11 79.07 -13.17 59.79 
73.8 -26.41 62.1 67.15 -38.62 63.25 50.67 -26.64 81.99 
55 -39.96 73.33 57.48 -51.93 63.25 47.92 -62.02 62.1 
36.95 -71.13 59.79 36.95 71.13 59.79 47.92 62.02 62.1 
57.48 51.93 63.25 41 39.96 81.99 55 39.96 73.33 
67.15 38.62 63.25 73.8 26.41 62.1 79.07 13.17 59.79 
86.68 13.12 48.11 70.94 61.56 -34.31 80.47 48.44 -34.31 
78.63 57.13 -23.55 84.84 51.61 -11.74 89.1 45.4 0 
74.99 64.66 14.01 84.67 51.34 14.01 91.77 37.17 13.99 
91.99 29.6 25.71 90.27 21.3 37.39 -21.21 91.5 -34.31 
-14.31 86.49 -48.11 -7.63 92.43 -37.39 6.63 91.62 -39.51 
20.3 89.1 -40.61 22.66 96.39 -14.01 29.66 91.3 -28.01 
35.95 84.02 -40.61 48.49 78.02 -39.51 60.51 70.29 -37.39 
-60.51 70.29 37.39 -57.03 78.02 25.71 -52.4 84.02 13.99 
-29.66 91.3 28.01 -38.32 91.3 14.01 -45.4 89.1 0 
-38.3 91.62 -11.74 -30.03 92.43 -23.55 -36.63 86.49 -34.31 
[...]
POINT_DATA 40962
SCALARS sulc float
LOOKUP_TABLE default
2.58349 2.72353 -5.99194 -3.94648 7.47026 -0.693781 -3.38231 5.03502 3.8303 
-1.87167 -1.99295 2.70754 -5.86493 -5.03983 -2.42104 -6.6171 8.75904 -5.8331 
-3.88046 1.7093 6.79736 10.353 1.09554 7.02519 -7.71386 5.33847 4.73672 
-1.40034 -6.68139 -3.3529 -1.25817 4.82724 6.33147 0.606007 -5.64508 4.02565 
-9.84029 0.85043 -4.30815 5.34165 -2.62413 -2.05664 -5.60887 3.68623 9.90259 
-9.12807 -3.8953 5.88898 1.57231 -7.21706 10.9953 4.80074 1.83726 -6.7484 
-1.00442 -0.174106 -2.25611 6.41861 -6.12273 0.196632 -2.45104 2.26606 5.91481 
0.764553 -7.75116 7.80932 5.75144 4.96852 -1.64288 -0.589366 0.213332 -0.559249 
7.49651 5.10262 -2.37048 4.09422 -4.79622 1.20636 5.56229 4.32137 -0.094344 
8.52553 3.57332 7.85431 -0.662684 -2.16601 3.91375 -5.01014 -7.7349 2.04062 
9.95786 -0.48239 3.09269 2.87249 -4.71209 6.51658 6.16229 4.37786 8.67565 
2.83831 -3.2128 9.11962 0.695905 5.3212 -8.02896 9.63488 0.90239 -1.62297 
-3.88351 5.63208 -4.34994 -6.35471 9.92136 7.05819 -1.73197 -9.80215 -1.79559 
-1.55841 4.02946 7.32885 2.76266 -7.12712 -4.25962 -2.34405 1.67054 -2.56787 
-2.62286 1.24192 -1.54183 -3.68229 1.2103 1.82516 -7.08758 9.77448 1.25061 
1.39289 5.26992 3.46712 2.80612 9.16193 0.790718 -3.367 -3.44933 -4.08228 
3.15859 10.9258 2.5589 -0.888467 -7.82179 3.94052 -2.0542 10.0216 -5.11856 
-1.59508 -4.27763 5.12474 3.01893 -3.6396 3.96535 -1.3678 -2.12881 -7.91846 
7.56188 6.25085 10.8591 -2.18911 3.65478 -6.10567 -0.62699 1.77958 -5.19745 
9.35775 -0.362998 9.30992 -2.24966 -5.78287 4.14715 6.41621 -0.00181723 -0.888756 
-0.45534 4.93699 7.31522 -1.52303 -2.15504 -0.624565 4.31212 1.39473 -4.4191 
10.3624 5.87314 9.97794 11.189 12.2921 -9.70726 -6.26332 -1.87747 1.47105 
7.47153 10.6456 -2.43865 3.14575 -2.14902 6.65158 3.51298 -0.270871 -2.74841 
-1.72506 -5.06841 7.92445 11.7638 6.33887 -7.57078 -5.30654 -7.70267 7.7224 
5.70605 -0.519195 8.87208 -1.14546 -2.14418 2.05865 -3.69191 -7.55686 3.65097 
-4.60856 3.67309 3.72862 7.00043 2.04701 -4.6185 -9.17239 -3.58224 -0.392333 
8.02684 5.92348 11.8303 4.69939 -1.67965 -5.36127 1.45026 -6.66859 -7.11467 
-4.95651 -5.41315 -7.11816 -1.50256 6.85896 5.75801 -2.37025 0.966652 -0.683421 
4.19723 -7.8082 1.23671 -1.85962 5.82141 -0.0495577 -7.71023 -8.05732 5.18158 
12.8172 -7.2714 -0.640167 -6.97226 2.48381 -8.63815 -7.84056 -9.28821 1.31232 
-0.0949478 0.446421 -4.031 -2.19786 -1.74878 -1.44052 -1.04343 7.86955 4.87668 
-0.215193 -1.37014 3.63829 -3.35287 -4.38743 -8.10614 1.16485 -3.10414 0.446819 
11.3471 6.84131 7.23711 -5.93187 -8.21186 5.53615 -5.83341 -5.9773 -3.39848 
-7.19977 -0.721963 1.82616 -4.80865 -5.83006 -7.20413 -6.16052 -6.60896 -3.51784 
4.32051 -1.62446 -1.59312 0.922687 -2.50687 7.75204 -2.89005 0.461736 9.49991 
12.9219 13.3435 10.715 12.9591 4.91039 -6.38856 -5.84098 -2.38957 -0.43373 
-1.35697 -9.14322 -6.16817 -8.53955 0.826033 -6.93077 -1.39045 8.49483 3.74382 
10.3744 7.04103 -7.38807 -3.06653 -4.60946 8.17649 -7.02081 -4.88457 0.925443 
4.24657 8.85815 -0.885481 7.56279 3.41368 -6.72214 2.65225 -7.5716 -3.50221 
3.00095 7.68597 -3.15865 -0.156394 -6.67593 -7.55602 1.99964 3.6847 -5.64766 
-3.04174 -1.98064 -7.5065 -0.587888 -2.19314 3.04504 -0.311725 -10.1592 -5.54427 
-8.11957 -4.23413 6.45451 -1.95004 9.38439 -0.165015 -0.331579 9.95225 0.032581 
8.55931 -8.4427 5.43987 3.8063 -6.14909 -7.4758 -0.592665 3.64551 6.66721 
3.7699 -8.49015 -5.67997 3.03352 -3.91751 -3.60156 -4.65491 7.55862 -2.63212 
-0.99235 -2.83049 -0.52677 3.57578 7.22041 -0.0294903 -0.823579 1.17658 1.38625 
3.93307 -0.202591 -5.66319 1.66608 1.75962 -7.62745 -4.36571 -9.96062 -9.35461 
-6.2812 -7.97053 -5.16292 -2.0639 3.1497 -5.7398 4.82876 2.98983 2.76518 
4.31987 -2.46459 3.94328 5.81997 -0.885646 -1.30457 2.32885 5.61374 -8.6521 
-3.71161 1.88279 2.73446 5.78262 5.28113 3.0912 -8.16728 -4.5497 -3.71266 
-0.445195 -0.795286 0.416609 -6.00698 -1.19309 -2.89026 -4.39094 4.07586 8.7943 
6.55315 -8.29915 -0.605655 1.6783 -1.32421 -5.89351 -6.31923 -0.193546 -4.65493 
2.92333 -1.44437 4.07893 -2.51812 0.0525623 -1.63655 8.81618 6.6444 7.66462 
-1.95456 -2.53571 3.93638 5.02216 6.12635 2.25432 1.83969 -5.31822 -5.71558 
-6.33081 -1.32794 0.066045 -7.2235 -4.46574 -5.89228 2.29166 -4.40585 -1.50941 
-7.97936 -1.31847 2.97298 -6.74235 2.42836 4.89544 9.3556 -4.69793 2.95675 
11.3161 3.6428 5.37689 5.148 -6.61066 3.85318 0.665368 5.14426 3.04091 
9.19548 9.49339 3.52269 -3.35299 -8.82936 -5.39866 -2.53913 -9.79533 -5.84545 
-3.50849 -1.37775 3.83185 -5.94263 -3.52695 -8.11006 8.00599 8.19328 7.64148 
2.03907 0.408338 4.4573 -3.60579 -2.12867 3.92926 -2.25579 -6.84947 -5.5766 
-3.03649 3.85607 -1.94251 -1.76606 -8.19891 -1.30833 -1.87512 -7.34406 -2.66458 
-4.77549 0.172352 2.91703 -1.36019 0.218184 3.9077 1.86634 -0.763215 -5.60575 
-2.5613 -3.0365 -8.41955 -1.72177 -4.46572 0.98982 8.15634 -3.95032 0.147538 
8.38515 6.63552 9.48482 -2.11643 8.15218 2.27213 8.93643 7.55295 4.60297 
-1.1279 -2.33813 5.74495 5.72689 -0.776694 10.939 7.50687 7.56144 5.56381 
-2.47925 6.61717 -1.1351 0.442283 -3.4637 -0.0770137 -6.67811 -8.36109 -8.03728 
-7.11698 4.59675 3.6937 11.0996 10.8427 4.52876 5.20743 13.9139 9.43646 
-1.12845 -8.03314 0.449204 -2.18555 4.14365 -0.878039 -1.83502 -3.54958 -9.75859 
-8.71477 -8.36689 5.58564 -2.33277 5.11183 -2.27643 -2.5085 11.5437 0.260323 
0.0447288 2.49905 -1.18044 1.61553 -4.55506 0.238699 1.39381 4.02885 -0.427916 
3.30915 -1.24392 -1.13558 -0.888374 -1.02994 -6.20991 5.34625 4.92938 -5.34807 
-5.82713 -2.70939 5.87601 0.990089 4.72551 -7.35676 0.0597525 6.32453 7.36082 
-5.1936 0.648117 -2.16247 6.32891 7.6349 8.05105 1.08018 5.86231 -2.73332 
-5.71276 3.16809 -5.24083 9.03649 -5.98801 0.249715 -3.24002 -4.00329 -3.34216 
2.1178 0.951641 4.7779 2.46189 6.83956 7.36953 3.67015 -3.76663 0.54817 
2.38606 -3.36141 -1.92776 8.01428 12.2428 9.53392 5.44796 9.05131 -7.65797 
-6.17068 -2.72467 0.231008 6.6251 9.29142 -1.80158 -1.53155 -1.90764 0.814562 
3.86958 -1.16184 -6.8434 -4.13381 -6.03699 9.22263 12.1621 9.26026 -9.16348 
-8.90078 -2.76112 2.92378 2.99434 -2.91936 -4.23864 -7.58503 -7.04539 -5.3251 
-4.04733 -9.08624 -8.84552 -9.90757 -6.05907 -2.8522 1.99284 -3.28132 -8.62706 
-10.2587 -9.09734 -2.50986 3.22336 10.159 7.90313 0.0136242 -2.76684 -5.60312 
-1.63822 -7.09157 -7.79938 -3.74206 -8.22373 -0.545227 3.10414 5.80886 2.68333 
2.11605 7.77638 5.85855 8.85147 3.68524 7.1051 -5.30685 -1.82956 -4.21397 
-3.65219 -2.02224 3.65549 7.95588 -9.51377 -7.6395 -7.85875 0.640378 0.328857 
-3.56319 -7.97729 -0.31666 1.20909 0.251613 0.0041175 -3.42705 1.3976 2.15805 
2.07523 4.90886 5.5473 2.89955 -2.51997 -2.73397 -2.21244 -2.13232 -4.48692 
-5.81892 2.75355 -6.38315 4.23357 -3.19893 0.357965 -5.86892 -8.37222 -3.21502 
-7.06394 0.978679 -8.71787 -8.1496 -9.3792 1.11065 -5.00505 -5.19367 2.05184 
-5.06026 0.395316 -1.87849 4.14608 4.99206 1.27686 5.23683 -5.53287 -5.73926 
0.964635 3.9786 8.96673 10.7585 10.443 10.1891 7.62866 3.19969 -0.681463 
-1.45893 3.08302 2.78703 2.80399 -7.31445 -10.0631 -2.24193 -7.64019 -4.17272 
-3.92863 0.723517 -1.03729 6.78054 4.40937 -3.67758 -7.19723 -6.92098 7.53799 
0.790756 -1.92873 4.82769 5.95967 8.4912 7.84082 7.15328 0.759818 -4.88186 
-0.197107 -4.04931 -7.44416 -5.49782 -6.04358 -2.49157 -5.04579 -8.8098 -10.3148 
-4.17436 -4.45141 -5.92618 -2.0645 1.51047 -7.75324 -6.20549 -1.12762 9.44589 
7.72326 5.39723 3.90211 0.533126 -10.3811 -9.32342 -7.89778 -0.364125 -1.44516 
-7.18623 -9.41532 10.2101 9.38369 8.27688 -6.23483 0.307741 -6.57308 -7.65137 
-4.72565 2.5557 -3.92192 0.723116 0.216032 7.69133 9.85695 -1.73764 6.89198 
1.43808 6.70834 -1.23552 -4.45902 -3.73801 -3.10537 1.64875 2.61345 9.38962 
6.04343 5.85826 1.45093 0.0395716 -4.98951 -4.86213 -5.80031 -1.25154 -4.57654 
-1.10523 2.20614 1.45005 3.19035 6.52181 6.68456 8.89347 6.90332 -1.90268 
-3.16788 -1.20202 -1.19286 0.84887 -0.674989 -0.0848596 1.90737 5.83136 3.16361 
1.90386 -1.65775 -0.898062 0.744409 -1.11802 -3.10517 1.41213 -6.76593 2.87631 
-4.10118 -0.824846 -2.97841 3.42319 3.87034 -0.938262 0.753909 -4.70375 -7.66831 
-9.163 -6.47142 -4.94304 -9.89402 -3.1682 4.24824 2.87715 -1.76649 -7.88736 
-7.9863 6.97007 1.96333 3.7434 4.76182 5.9593 1.25836 -3.13678 0.504816 
2.23564 -0.0122954 -7.06313 -0.487929 -0.435952 3.22683 0.534166 -1.04011 -2.36145 
-2.07788 9.09333 8.48606 4.85016 -2.14587 -3.25645 -3.27704 -1.08296 0.352744 
3.65779 5.56812 4.94689 5.7718 4.13913 5.82991 -0.945876 2.81425 -0.163393 
-3.1535 -4.32047 -1.60469 -3.64988 1.61024 -4.23299 -0.607221 -4.43662 0.339588 
-6.89148 -6.55038 -1.69596 -0.316504 0.671761 3.99712 7.08442 10.1649 6.12281 
1.99656 -2.68941 0.889278 0.248951 3.3738 -9.09135 -5.72796 -5.27043 -8.17712 
-2.54252 -2.89638 -2.67637 1.69567 -2.1024 -3.50462 1.7591 0.837719 5.30738 
0.0450877 7.02785 8.96533 11.2741 7.60857 1.04948 2.57165 5.01673 5.85916 
7.23729 -0.730672 4.15369 2.45193 5.89151 5.47621 -7.1241 -3.31126 -4.04818 
0.71777 -1.03695 -2.72338 0.230265 0.749368 5.06331 0.700838 -1.79736 2.58417 
-1.92618 3.28292 3.70176 -2.19219 1.29422 6.19516 -0.673693 0.0501002 -4.70361 
-0.378081 -0.0292441 -6.28327 -7.47148 -6.49697 -7.14951 -5.15135 -5.52903 -9.47115 
-4.92839 -7.11526 1.89763 -1.80974 2.18649 -2.35959 6.1827 1.21736 5.22988 
4.51319 0.816606 -4.69606 -7.34612 -8.70808 8.76221 10.0262 8.92294 -6.22609 
-6.38908 -5.63482 -1.98715 0.412155 3.30054 1.84424 7.2709 7.65861 9.7484 
3.64306 -1.06323 2.26694 -0.593889 -2.82611 4.60158 8.87819 10.2979 -3.13305 
-4.87908 1.57501 -4.14619 -0.20497 2.88235 7.69173 2.18178 -0.869547 -4.96542 
5.90543 0.846272 8.58697 6.93959 9.90594 7.44345 9.25043 2.03489 6.25085 
4.46678 7.05542 2.57571 -2.00397 -1.60128 -0.885397 -1.94824 -6.86934 -10.8686 
-6.83248 -6.61971 -5.34533 -3.73934 -8.19107 -4.17619 -7.63383 -4.6915 -4.43869 
-4.39897 -3.24094 2.09668 6.6135 6.14405 5.78035 -1.73884 1.20446 -1.64962 
-6.60749 -0.43884 1.73865 -8.38012 -0.488755 -2.0399 8.45461 10.3392 10.5215 
10.8524 11.4886 9.80934 8.49017 0.0642453 1.1225 3.03118 3.41408 -0.112369 
4.62417 -1.15533 6.02416 -0.620913 -5.53729 -2.42982 -10.9274 -6.33621 -1.65235 
2.46405 0.866876 2.53151 -4.92418 -6.65887 -6.60005 -5.66729 -3.86011 -4.35333 
-1.47775 -1.0961 -2.43225 -2.0334 -4.17192 -6.81614 -4.75226 -1.65281 -0.745478 
-1.22491 -2.73189 -1.27026 -0.129355 -4.15613 -2.83654 -6.28704 -2.88305 -2.84342 
-3.5198 -5.89422 -6.32944 -6.4599 3.96516 -2.28799 2.74417 3.68931 -1.36042 
-2.41334 1.46567 -2.41309 -1.0122 -2.38838 -0.909286 1.61175 5.83433 4.34295 
3.69153 2.66895 2.55429 -2.28401 -4.79866 -6.6211 -7.39576 -5.05936 6.51176 
-0.893872 5.54096 -5.5667 -3.97249 -2.87369 -2.49351 -6.60732 7.9981 6.35304 
7.95249 11.7652 6.88772 0.026716 -6.04846 -0.402416 2.95284 7.76587 2.58663 
4.81269 1.08309 0.606387 -3.19076 3.27496 7.94228 5.46233 -3.00437 0.131962 
2.5711 3.14369 6.95406 -5.41798 -3.06881 1.67567 -4.36165 1.95892 0.666981 
8.90744 2.13123 5.85472 2.42261 -3.92328 4.00928 1.78506 0.853228 3.51548 
0.301576 -2.31253 -0.895052 2.9821 7.95786 12.3533 12.9876 1.32964 1.31305 
4.76026 -5.61413 -0.389294 -4.14914 -0.583858 -6.36098 2.2649 -2.04535 4.44937 
-6.04586 -4.33583 -3.12144 -3.4842 0.386118 0.82648 3.4429 -5.23058 -5.25187 
-5.50824 -2.18931 -6.13311 0.237747 -7.15902 1.07799 4.44618 -0.200441 1.83161 
-6.78389 -4.90134 -3.55619 -6.4523 4.33354 2.15205 6.46041 7.30659 4.32474 
8.78301 8.6617 13.8007 12.2696 7.4846 0.900358 6.06704 3.57596 9.39028 
10.7304 8.05048 10.9405 4.98497 2.96233 -0.450306 -5.59935 -2.96517 -8.04395 
-6.3584 -2.26974 2.25527 0.692553 -1.54651 -4.31195 -2.9536 -1.82635 0.115747 
2.11079 1.68659 1.49906 1.62448 -1.4183 2.09482 -13.2811 -4.10581 -10.2442 
-7.47854 -11.0346 -8.94045 -7.84004 -2.79668 -3.98231 -7.46353 -4.34716 -6.62666 
5.07101 5.59211 8.75773 11.2953 8.76211 6.05759 -3.43003 1.52135 5.51236 
7.42093 10.3723 -2.04181 4.02481 -4.43861 -4.18485 -3.4049 1.52583 -2.67748 
-1.18661 -2.02681 4.17291 6.37475 5.77317 -2.41524 -6.26748 0.656168 -10.4968 
-6.81331 -3.77438 4.06069 -2.39128 -5.07103 -1.387 -1.90036 7.70459 4.06295 
7.0738 6.84551 1.84817 -2.17868 -3.76869 -1.50278 -3.47619 -3.75501 -2.02836 
-2.3616 6.19144 3.50087 0.571095 -1.81895 -4.3086 -3.91756 0.63671 5.91924 
0.315884 8.79509 4.19214 5.92793 -4.7505 -3.78021 -4.55839 -7.76801 -8.07171 
-2.35961 5.22413 8.20503 8.29533 6.68386 -0.0669464 9.42619 9.04632 4.47278 
-9.59647 -6.73455 -7.63035 -7.12388 -0.595788 9.4619 5.13957 9.98091 -0.66266 
5.60656 0.598499 2.22458 -6.82014 -3.03615 -3.57924 0.0904888 -3.56741 -6.05886 
-5.98481 -4.66278 -0.124268 0.958132 2.00338 7.29222 12.2896 -6.15437 -2.04033 
2.4191 5.92286 0.8757 3.53902 -3.27527 -7.54822 -2.9144 -7.40297 -6.43113 
-6.36363 13.4525 12.1977 5.62689 3.0015 5.99058 3.4782 3.87377 -3.79523 
-1.55967 3.75873 1.55835 -3.34074 4.96045 1.28786 -2.04481 -3.79201 -1.76959 
0.465746 -1.23112 -0.35788 4.06725 7.62807 2.66667 2.57231 -2.28294 -1.59439 
-4.65407 1.80124 3.42353 6.51885 3.88819 2.45721 1.36535 -4.83331 5.1111 
3.1348 8.90902 7.99084 4.01573 9.53935 11.0801 12.9252 8.06879 -6.67595 
-3.97955 -7.87937 -6.95583 -5.22419 -0.794249 1.41103 2.9108 9.47712 8.80517 
-1.8032 2.75276 1.41601 0.270855 1.3901 9.25125 5.63425 7.3636 5.1554 
0.778531 3.53714 7.61446 4.30478 0.115634 -7.05165 4.15654 7.643 11.4104 
8.94339 2.15265 -2.26949 0.800525 -3.88672 -8.6992 -7.55998 8.64222 7.11154 
8.94864 4.96876 0.464318 9.10682 -0.177756 3.02528 3.54646 4.70898 6.09089 
-0.182258 -3.13085 -0.575324 -0.358539 0.578585 -0.426666 -2.54908 -2.02323 1.19057 
1.16035 -2.68496 8.31746 7.79825 7.80299 6.93738 5.17482 0.383684 -7.94708 
-8.90254 -6.53143 -0.714839 -4.54456 2.22992 3.77167 10.2109 7.62371 10.2716 
9.34676 6.40038 8.78192 5.90801 3.83761 -5.1703 -6.45903 -2.67489 -2.79531 
3.35261 -0.547705 -3.64979 -6.12035 0.203029 3.82832 -0.930229 -5.03255 -9.05034 
-6.20371 -2.12023 -4.94886 3.18592 8.19924 8.53964 4.97315 2.78453 0.347186 
-3.81984 -5.56406 1.74632 5.20352 -0.476571 -7.82115 -2.32626 -4.22334 -6.91404 
0.263677 1.27759 2.35686 4.62607 1.58701 -4.93261 -5.25431 -8.2316 -0.943893 
5.36217 11.1892 10.1392 10.4651 -3.28844 3.62794 -0.968155 -2.4184 0.332181 
-5.75073 -4.17971 -5.87073 -6.1757 -9.79702 -9.52092 -8.40254 -3.98568 1.82307 
1.53302 2.60233 -0.462867 -1.6756 -3.64639 -2.11554 -3.68607 -4.18501 -3.70281 
-3.17452 -1.18456 -0.343832 1.19768 10.8644 6.11978 6.76727 1.53206 -2.8278 
1.67014 3.01044 0.749823 -0.918787 -3.53438 -5.07287 -3.66362 -2.80493 -6.35675 
2.42657 -5.003 -6.43366 -7.4033 0.331404 9.35823 3.24206 9.97142 12.3023 
9.1183 9.13964 1.81424 -4.57781 -3.35388 2.56694 -0.445075 1.30677 -6.13714 
-3.58815 -0.313414 -8.82091 -8.55147 -3.42647 -3.58139 -5.87572 -5.99269 2.78306 
-3.56794 -2.97689 -7.37595 1.91085 -4.96391 -2.22426 -7.91307 -7.23255 -6.23805 
-6.27257 -5.818 -0.432676 8.40029 -1.15468 1.62053 -1.07662 -3.35185 -4.13918 
7.63796 5.81412 3.14167 -1.50859 -6.55285 -6.58109 -0.862517 3.24553 8.92525 
8.61232 9.72456 13.8817 14.818 8.61564 12.3981 12.191 9.14101 3.04995 
-2.66617 1.29136 -1.75837 -7.24047 -3.58857 -0.332939 1.13262 -0.603943 -2.81915 
0.0721973 0.147413 -8.79725 -12.4704 -9.33245 -1.59334 -3.99446 -1.51664 -4.91047 
-0.287238 5.69933 2.43669 6.18765 10.8137 10.4923 11.2532 9.03016 1.2415 
-7.28927 -4.13137 -5.44597 -4.89426 1.5727 4.95547 -0.268628 2.15768 -6.08235 
-8.93064 -2.57759 -2.47465 1.16867 7.94709 7.48736 0.773173 5.19274 4.52816 
4.86981 4.79031 -0.931089 -2.00968 -0.0745734 4.97436 -4.22971 -2.2702 -5.8333 
0.532368 8.49271 4.59666 7.27582 -0.144912 -3.45579 -1.64252 -0.591735 -6.12224 
-9.85644 -2.83076 6.49366 6.62003 1.53829 -3.94894 -7.53906 -5.60163 -1.76623 
1.50096 2.09017 -6.13274 0.16736 -4.68631 -6.31359 -2.97944 4.44883 2.30862 
3.47864 8.29983 5.14334 0.538152 -8.29939 -5.29387 -8.0144 -8.91717 -7.27055 
-1.32016 -3.34659 -0.870402 -6.26252 -8.4775 0.710334 -3.35704 2.71119 5.94724 
6.85737 4.9857 5.77144 4.8157 -0.600236 -7.90457 1.62923 7.4302 4.87747 
4.87242 2.6973 -3.61923 0.54398 9.19885 9.1485 4.45209 -5.70497 -6.05329 
-2.1121 4.45347 12.0365 10.6892 7.95955 -0.202544 -6.76565 -7.08164 -3.36428 
-7.68776 -8.18199 -5.80513 5.85676 1.23074 -2.71593 2.75397 4.67401 10.3284 
-0.267593 -7.58733 -2.81728 -5.89054 -1.55117 4.54693 0.724493 -2.71204 -0.589531 
-6.19065 -3.71794 -4.1454 -4.37385 -4.63051 -4.46658 -0.931796 2.13416 -0.806475 
1.63595 6.41702 -1.97358 -1.1973 -2.62121 -2.17922 -3.00654 -0.00856272 -1.89138 
-3.38621 -2.72988 -0.491593 5.18933 8.32094 6.16013 4.08502 -0.480373 -1.38797 
-1.54549 -0.953979 1.57684 0.20962 -2.5098 5.50256 1.11759 6.69896 5.99015 
4.44657 -6.8036 -5.90732 -2.62662 -3.92062 -4.92451 -0.198128 -0.609503 -6.1247 
-2.81096 -5.65744 -8.88033 -3.31348 -8.93605 -7.37701 -8.55557 0.272724 -4.09465 
-5.9353 -8.38894 -8.90378 -0.145659 -0.715261 0.045921 -3.40016 -7.59017 -2.6492 
3.64515 2.34522 1.50588 -0.782567 -1.54416 6.98124 11.1118 10.7366 10.129 
1.30892 -7.42312 4.92221 8.45066 4.92118 -0.910567 1.31543 -4.02442 -0.00872502 
2.06391 6.5672 7.7493 8.78091 5.64696 2.08424 -2.79954 -0.0151541 5.06106 
4.99486 7.3679 6.11252 -1.13121 -8.56821 -7.38813 -7.36734 -5.15629 -3.78438 
1.61172 4.78034 3.70102 6.49374 6.81835 8.88858 9.82467 7.49091 -1.96511 
-2.8216 -5.54775 -8.27927 -4.70578 -0.261589 -5.1758 -2.49277 -1.83471 0.537161 
3.1217 -0.8084 5.182 -5.22684 -4.6312 -4.68973 5.29443 4.61897 2.42806 
-1.73043 -3.85445 -1.58423 -8.22466 -4.03619 -1.84955 5.46274 11.6656 11.3493 
11.6229 9.64034 4.93636 -2.04377 -4.91814 5.45183 5.77786 0.691712 -2.36308 
2.59712 -3.37636 -0.758575 -2.09264 -4.99489 -9.42108 -3.6145 -0.194803 -6.07967 
-3.60308 3.48588 -3.48477 -1.62957 -5.99027 -3.45954 1.32229 0.963696 -3.08311 
1.39739 10.6467 0.791695 3.57112 7.91208 2.20979 -4.25187 -5.55408 -3.74608 
-0.780757 5.70249 9.19707 7.83817 9.48589 10.9669 8.43758 6.36288 8.63964 
-1.76048 1.57489 3.33171 -1.55067 -1.42607 3.41449 4.79564 6.09195 7.37248 
6.68822 6.74784 6.58055 2.76521 4.29374 7.59856 8.48446 6.19136 0.676662 
1.63423 -3.07808 -4.90083 -3.0009 -0.605288 -6.66715 -5.04489 -7.57472 -8.79234 
-8.43641 -4.41231 1.87871 1.20063 -6.74217 -2.69579 3.48685 -1.97486 -8.71693 
-2.02948 1.32574 2.68236 1.81544 -6.25143 -6.31435 -1.43598 -4.10938 -5.00066 
-4.80279 -4.20685 -5.68042 -5.88594 -1.87078 1.93422 -4.55562 -3.91753 -5.71308 
-0.705285 4.44501 12.0429 7.5501 0.01381 2.32458 -2.85028 -7.14505 -3.9395 
1.8019 4.59164 2.79458 5.91784 9.84438 3.08082 9.15866 9.09358 7.33434 
7.22233 -7.00643 -6.35616 -8.43818 -5.7994 -5.27418 -2.9332 3.79146 8.83821 
12.0992 -7.22729 -3.96646 3.21469 3.09459 8.97246 10.4343 10.1835 11.0847 
8.0434 3.44393 -3.37753 -6.57698 -2.24573 -5.50959 -3.84757 3.18056 3.67617 
-3.59049 4.04866 3.30626 6.34877 8.45004 10.3742 7.97467 10.0845 10.6408 
9.27023 7.34725 4.52545 -4.53989 -5.67307 -6.11995 -1.03952 -7.86862 -5.76624 
-1.49969 -1.40562 2.55822 0.428514 -3.65917 -6.08288 -2.34079 -6.13241 -8.7585 
-11.0803 -6.81494 -3.40884 -3.56027 -4.73806 -0.935269 2.45874 -0.913965 2.44582 
2.53537 -3.00433 -4.31822 0.188808 -5.85847 0.107308 0.178353 -7.28863 -4.20238 
-1.58731 -6.47007 -2.08015 6.98571 7.2794 4.74058 3.85228 11.2299 8.48057 
4.6664 3.93734 1.71654 7.30074 6.73419 6.56129 -0.747302 2.65194 6.47147 
5.51596 0.942314 1.19142 -9.3607 -7.64398 -5.54706 -9.33306 -4.14392 -0.00841591 
4.91 0.484062 -1.83507 2.39504 3.43116 -3.08858 -8.11438 -8.5236 -7.7973 
-6.87133 -3.67463 -2.84866 -0.399674 0.586626 0.0265494 0.658319 -1.19081 -0.641386 
-0.825115 -1.64958 -1.83283 -5.09089 -8.39906 -0.33835 0.412654 -1.23735 -0.809695 
-1.17853 -2.28547 -4.48038 -6.81891 -7.90859 -5.88104 -6.72921 -1.71193 -3.2333 
-4.02923 -3.72636 -4.67849 -3.72648 1.53202 5.09355 6.83154 -0.290914 1.73173 
7.07123 5.87287 3.70775 1.03135 -0.832063 -3.79544 -1.28502 3.08695 0.910672 
-2.03128 -1.0239 -1.62382 -2.48788 -2.66024 -1.37089 -0.959464 -6.24178 -4.05239 
-1.25545 -0.87301 -1.60522 -2.13913 -6.77926 -6.13044 -9.95908 -7.63102 -6.06037 