# vtk DataFile Version 5.1
vtk output
ASCII
DATASET POLYDATA
POINTS 40962 float
0 0 100 27.64 -85.07 44.72 89.44 0 44.72 
27.64 85.07 44.72 -72.36 52.57 44.72 -72.36 -52.57 44.72 
-27.64 -85.07 -44.72 72.36 -52.57 -44.72 72.36 52.57 -44.72 
-27.64 85.07 -44.72 -89.44 0 -44.72 0 0 -100 
-42.53 30.9 85.07 -26.29 80.9 52.57 16.25 50 85.07 
-42.53 -30.9 85.07 -85.07 0 52.57 16.25 -50 85.07 
-26.29 -80.9 52.57 52.57 0 85.07 68.82 -50 52.57 
68.82 50 52.57 58.78 80.9 0 95.11 30.9 0 
0 100 0 26.29 80.9 -52.57 -58.78 80.9 0 
-95.11 30.9 0 -68.82 50 -52.57 -95.11 -30.9 0 
-58.78 -80.9 0 -68.82 -50 -52.57 0 -100 0 
58.78 -80.9 0 26.29 -80.9 -52.57 95.11 -30.9 0 
85.07 0 -52.57 -16.25 50 -85.07 42.53 30.9 -85.07 
-52.57 0 -85.07 -16.25 -50 -85.07 42.53 -30.9 -85.07 
-22.11 16.06 96.19 -13.82 42.53 89.44 8.44 25.99 96.19 
-22.11 -16.06 96.19 -44.72 0 89.44 8.44 -25.99 96.19 
-13.82 -42.53 89.44 27.33 0 96.19 36.18 -26.29 89.44 
36.18 26.29 89.44 44.92 86.27 23.25 67.08 68.82 27.64 
50.14 70.2 50.57 14.37 96.19 23.25 30.9 95.11 0 
0.7 86.27 50.57 -13.82 95.11 27.64 -87.05 43.39 23.25 
-80.9 58.78 0 -68.16 69.38 23.25 -81.83 27.33 50.57 
-94.72 16.25 27.64 -68.16 -69.38 23.25 -80.9 -58.78 0 
-87.05 -43.39 23.25 -51.28 -69.38 50.57 -44.72 -85.07 27.64 
44.92 -86.27 23.25 30.9 -95.11 0 14.37 -96.19 23.25 
50.14 -70.2 50.57 67.08 -68.82 27.64 95.93 16.06 23.25 
100 0 0 95.93 -16.06 23.25 51.28 69.38 -50.57 
36.18 58.78 -72.36 59.72 43.39 -67.46 -50.14 70.2 -50.57 
-44.72 52.57 -72.36 -22.81 70.2 -67.46 -82.26 -25.99 -50.57 
-63.82 -26.29 -72.36 -73.82 0 -67.46 -0.7 -86.27 -50.57 
5.28 -68.82 -72.36 -22.81 -70.2 -67.46 81.83 -27.33 -50.57 
67.08 -16.25 -72.36 59.72 -43.39 -67.46 -59.72 43.39 67.46 
-51.28 69.38 50.57 -36.18 58.78 72.36 -5.28 68.82 72.36 
22.81 70.2 67.46 -59.72 -43.39 67.46 -81.83 -27.33 50.57 
-67.08 -16.25 72.36 -67.08 16.25 72.36 22.81 -70.2 67.46 
0.7 -86.27 50.57 -5.28 -68.82 72.36 -36.18 -58.78 72.36 
73.82 0 67.46 82.26 -25.99 50.57 63.82 -26.29 72.36 
44.72 -52.57 72.36 44.72 52.57 72.36 63.82 26.29 72.36 
82.26 25.99 50.57 68.16 69.38 -23.25 87.05 43.39 -23.25 
80.9 58.78 0 86.18 42.53 27.64 -14.37 96.19 -23.25 
-0.7 86.27 -50.57 13.82 95.11 -27.64 44.72 85.07 -27.64 
-44.72 85.07 27.64 -30.9 95.11 0 -44.92 86.27 -23.25 
-95.93 16.06 -23.25 -82.26 25.99 -50.57 -86.18 42.53 -27.64 
-67.08 68.82 -27.64 -94.72 -16.25 27.64 -100 0 0 
-95.93 -16.06 -23.25 -44.92 -86.27 -23.25 -50.14 -70.2 -50.57 
-67.08 -68.82 -27.64 -86.18 -42.53 -27.64 -13.82 -95.11 27.64 
-30.9 -95.11 0 -14.37 -96.19 -23.25 68.16 -69.38 -23.25 
51.28 -69.38 -50.57 44.72 -85.07 -27.64 13.82 -95.11 -27.64 
86.18 -42.53 27.64 80.9 -58.78 0 87.05 -43.39 -23.25 
81.83 27.33 -50.57 94.72 16.25 -27.64 94.72 -16.25 -27.64 
5.28 68.82 -72.36 13.82 42.53 -89.44 -8.44 25.99 -96.19 
22.11 16.06 -96.19 -63.82 26.29 -72.36 -36.18 26.29 -89.44 
-27.33 0 -96.19 -44.72 -52.57 -72.36 -36.18 -26.29 -89.44 
-8.44 -25.99 -96.19 36.18 -58.78 -72.36 13.82 -42.53 -89.44 
22.11 -16.06 -96.19 67.08 16.25 -72.36 44.72 0 -89.44 
-11.16 8.11 99.04 -6.92 21.3 97.46 4.26 13.12 99.04 
-11.16 -8.11 99.04 -22.4 0 97.46 4.26 -13.12 99.04 
-6.92 -21.3 97.46 13.8 0 99.04 18.12 -13.17 97.46 
18.12 13.17 97.46 36.63 86.49 34.31 48.15 79.26 37.39 
39.26 78.38 48.11 21.21 91.5 34.31 30.03 92.43 23.55 
14.31 86.49 48.11 7.63 92.43 37.39 -80.47 48.44 34.31 
-78.63 57.13 23.55 -70.94 61.56 34.31 -77.84 40.34 48.11 
-85.55 35.82 37.39 -70.94 -61.56 34.31 -78.63 -57.13 23.55 
-80.47 -48.44 34.31 -62.41 -61.56 48.11 -60.51 -70.29 37.39 
36.63 -86.49 34.31 30.03 -92.43 23.55 21.21 -91.5 34.31 
39.26 -78.38 48.11 48.15 -79.26 37.39 93.58 8.11 34.31 
97.19 0 23.55 93.58 -8.11 34.31 62.41 61.56 -48.11 
56.23 57.13 -59.79 66.68 48.44 -56.63 -39.26 78.38 -48.11 
-36.95 71.13 -59.79 -25.47 78.38 -56.63 -86.68 -13.12 -48.11 
-79.07 -13.17 -59.79 -82.42 0 -56.63 -14.31 -86.49 -48.11 
-11.91 -79.26 -59.79 -25.47 -78.38 -56.63 77.84 -40.34 -48.11 
71.7 -35.82 -59.79 66.68 -48.44 -56.63 -51.62 37.5 77 
-48.45 51.61 70.63 -39.85 45.4 79.69 1.23 46.84 88.34 
-9.68 56.43 81.99 5.55 60.15 79.69 8.86 70.23 70.63 
19.72 60.68 77 -51.62 -37.5 77 -64.06 -30.13 70.63 
-55.49 -23.87 79.69 -44.17 15.64 88.34 -56.65 8.23 81.99 
-55.49 23.87 79.69 -64.06 30.13 70.63 19.72 -60.68 77 
8.86 -70.23 70.63 5.55 -60.15 79.69 -28.53 -37.17 88.34 
-25.34 -51.34 81.99 -39.85 -45.4 79.69 -48.45 -51.61 70.63 
63.81 0 77 69.53 -13.28 70.63 58.92 -13.31 79.69 
26.54 -38.62 88.34 41 -39.96 81.99 30.86 -51.93 79.69 
34.12 -62.02 70.63 34.12 62.02 70.63 30.86 51.93 79.69 
44.93 13.31 88.34 50.67 26.64 81.99 58.92 13.31 79.69 
69.53 13.28 70.63 64.08 75.87 -11.73 75.3 64.74 -11.74 
70.71 70.71 0 68.8 60.15 40.61 77.66 56.43 28.01 
78.47 46.84 40.61 85.09 34.62 39.51 76.27 38.36 52.07 
-7.25 99.04 -11.73 -0.28 96.64 -25.71 7 98.77 -13.99 
45.4 89.1 0 38.32 91.3 -14.01 52.39 84.02 -13.99 
57.03 78.02 -25.71 -39.16 75.87 52.07 -48.49 78.02 39.51 
-35.95 84.02 40.61 -7 98.77 13.99 -22.66 96.39 14.01 
-15.64 98.77 0 -22.87 96.64 -11.74 -96.44 23.71 -11.73 
-91.99 29.6 -25.71 -91.77 37.17 -13.99 -70.71 70.71 0 
-74.99 64.66 -14.01 -63.71 75.79 -13.99 -56.58 78.35 -25.71 
-52.35 84.39 -11.73 -84.25 -13.8 52.07 -89.19 -22.01 39.51 
-91.01 -8.22 40.61 -96.1 23.87 13.99 -98.67 8.23 14.01 
-98.77 15.64 0 -98.98 8.11 -11.74 -52.35 -84.39 -11.73 
-56.58 -78.35 -25.71 -63.71 -75.79 -13.99 -89.1 -45.4 0 
-84.67 -51.34 -14.01 -91.77 -37.17 -13.99 -91.99 -29.6 -25.71 
-96.44 -23.71 -11.73 -12.92 -84.39 52.07 -6.63 -91.62 39.51 
-20.3 -89.1 40.61 -52.39 -84.02 13.99 -38.32 -91.3 14.01 
-45.4 -89.1 0 -38.3 -91.62 -11.74 64.08 -75.87 -11.73 
57.03 -78.02 -25.71 52.4 -84.02 -13.99 15.64 -98.77 0 
22.66 -96.39 -14.01 7 -98.77 -13.99 -0.28 -96.64 -25.71 
-7.25 -99.04 -11.73 76.27 -38.36 52.07 85.09 -34.62 39.51 
78.47 -46.84 40.61 63.71 -75.79 13.99 74.99 -64.66 14.01 
70.71 -70.71 0 75.3 -64.74 -11.74 91.96 37.5 -11.73 
91.82 30.13 -25.71 96.1 23.87 -13.99 98.77 -15.64 0 
98.67 -8.23 -14.01 96.1 -23.87 -13.99 91.82 -30.13 -25.71 
91.96 -37.5 -11.73 12.92 84.39 -52.07 2.31 78.35 -62.1 
15.98 75.79 -63.25 39.85 45.4 -79.69 25.34 51.34 -81.99 
28.53 37.17 -88.34 18.15 29.6 -93.78 32.63 23.71 -91.5 
-76.27 38.36 -52.07 -73.8 26.41 -62.1 -67.15 38.62 -63.25 
-30.86 51.93 -79.69 -41 39.96 -81.99 -26.54 38.62 -88.34 
-22.54 26.41 -93.78 -12.46 38.36 -91.5 -60.05 -60.68 -52.07 
-47.92 -62.02 -62.1 -57.48 -51.93 -63.25 -58.92 -13.31 -79.69 
-50.67 -26.64 -81.99 -44.93 -13.31 -88.34 -32.08 -13.28 -93.78 
-40.34 0 -91.5 39.16 -75.87 -52.07 44.18 -64.74 -62.1 
31.62 -70.71 -63.25 -5.55 -60.15 -79.69 9.68 -56.43 -81.99 
-1.23 -46.84 -88.34 2.72 -34.62 -93.78 -12.46 -38.36 -91.5 
84.25 13.8 -52.07 75.22 22.01 -62.1 77.02 8.22 -63.25 
55.49 -23.87 -79.69 56.65 -8.23 -81.99 44.17 -15.64 -88.34 
33.76 -8.11 -93.78 32.63 -23.71 -91.5 -32.63 23.71 91.5 
-28.53 37.17 88.34 -18.15 29.6 93.78 -2.72 34.62 93.78 
12.46 38.36 91.5 -32.63 -23.71 91.5 -44.17 -15.64 88.34 
-33.76 -8.11 93.78 -33.76 8.11 93.78 12.46 -38.36 91.5 
1.23 -46.84 88.34 -2.72 -34.62 93.78 -18.15 -29.6 93.78 
40.34 0 91.5 44.93 -13.31 88.34 32.08 -13.28 93.78 
22.54 -26.41 93.78 26.54 38.62 88.34 22.54 26.41 93.78 
32.08 13.28 93.78 52.35 84.39 11.73 63.71 75.79 13.99 
56.58 78.35 25.71 59.22 70.23 39.51 60.05 60.68 52.07 
7.25 99.04 11.73 15.64 98.77 0 22.87 96.64 11.74 
38.3 91.62 11.74 -12.92 84.39 52.07 -20.3 89.1 40.61 
-6.63 91.62 39.51 0.28 96.64 25.71 -91.96 37.5 11.73 
-89.1 45.4 0 -84.84 51.61 11.74 -75.3 64.74 11.74 
-64.08 75.87 11.73 -84.25 13.8 52.07 -91.01 8.22 40.61 
-89.19 22.01 39.51 -91.82 30.13 25.71 -64.08 -75.87 11.73 
-70.71 -70.71 0 -75.3 -64.74 11.74 -84.84 -51.61 11.74 
-91.96 -37.5 11.73 -39.16 -75.87 52.07 -35.95 -84.02 40.61 
-48.49 -78.02 39.51 -57.03 -78.02 25.71 52.35 -84.39 11.73 
45.4 -89.1 0 38.3 -91.62 11.74 22.87 -96.64 11.74 
7.25 -99.04 11.73 60.05 -60.68 52.07 68.8 -60.15 40.61 
59.22 -70.23 39.51 56.58 -78.35 25.71 96.44 23.71 11.73 
98.77 15.64 0 98.98 8.11 11.74 98.98 -8.11 11.74 
96.44 -23.71 11.73 39.16 75.87 -52.07 31.62 70.71 -63.25 
44.18 64.74 -62.1 48.45 51.61 -70.63 51.62 37.5 -77 
-60.05 60.68 -52.07 -57.48 51.93 -63.25 -47.92 62.02 -62.1 
-34.12 62.02 -70.63 -19.72 60.68 -77 -76.27 -38.36 -52.07 
-67.15 -38.62 -63.25 -73.8 -26.41 -62.1 -69.53 -13.28 -70.63 
-63.81 0 -77 12.92 -84.39 -52.07 15.98 -75.79 -63.25 
2.31 -78.35 -62.1 -8.86 -70.23 -70.63 -19.72 -60.68 -77 
84.25 -13.8 -52.07 77.02 -8.22 -63.25 75.22 -22.01 -62.1 
64.06 -30.13 -70.63 51.62 -37.5 -77 -66.68 48.44 56.63 
-62.41 61.56 48.11 -56.23 57.13 59.79 -44.18 64.74 62.1 
-31.62 70.71 63.25 -25.34 51.34 81.99 -21.01 64.66 73.33 
-15.98 75.79 63.25 -2.31 78.35 62.1 11.91 79.26 59.79 
25.47 78.38 56.63 -66.68 -48.44 56.63 -77.84 -40.34 48.11 
-71.7 -35.82 59.79 -75.22 -22.01 62.1 -77.02 -8.22 63.25 
-56.65 -8.23 81.99 -67.99 0 73.33 -77.02 8.22 63.25 
-75.22 22.01 62.1 -71.7 35.82 59.79 25.47 -78.38 56.63 
14.31 -86.49 48.11 11.91 -79.26 59.79 -2.31 -78.35 62.1 
-15.98 -75.79 63.25 -9.68 -56.43 81.99 -21.01 -64.66 73.33 
-31.62 -70.71 63.25 -44.18 -64.74 62.1 -56.23 -57.13 59.79 
82.42 0 56.63 86.68 -13.12 48.11 79.07 -13.17 59.79 
73.8 -26.41 62.1 67.15 -38.62 63.25 50.67 -26.64 81.99 
55 -39.96 73.33 57.48 -51.93 63.25 47.92 -62.02 62.1 
36.95 -71.13 59.79 36.95 71.13 59.79 47.92 62.02 62.1 
57.48 51.93 63.25 41 39.96 81.99 55 39.96 73.33 
67.15 38.62 63.25 73.8 26.41 62.1 79.07 13.17 59.79 
86.68 13.12 48.11 70.94 61.56 -34.31 80.47 48.44 -34.31 
78.63 57.13 -23.55 84.84 51.61 -11.74 89.1 45.4 0 
74.99 64.66 14.01 84.67 51.34 14.01 91.77 37.17 13.99 
91.99 29.6 25.71 90.27 21.3 37.39 -21.21 91.5 -34.31 
-14.31 86.49 -48.11 -7.63 92.43 -37.39 6.63 91.62 -39.51 
20.3 89.1 -40.61 22.66 96.39 -14.01 29.66 91.3 -28.01 
35.95 84.02 -40.61 48.49 78.02 -39.51 60.51 70.29 -37.39 
-60.51 70.29 37.39 -57.03 78.02 25.71 -52.4 84.02 13.99 
-29.66 91.3 28.01 -38.32 91.3 14.01 -45.4 89.1 0 
-38.3 91.62 -11.74 -30.03 92.43 -23.55 -36.63 86.49 -34.31 
[...]
POINT_DATA 40962
SCALARS sulc float
LOOKUP_TABLE default
-7.25915 -9.19872 4.22538 -2.06711 -2.2561 -0.953434 0.866831 -2.54316 -0.0417903 
9.76666 2.51915 6.60883 -2.9307 9.95416 -4.89283 -1.78913 -3.13032 -0.143343 
4.47747 -3.44131 3.89035 -5.46596 -1.24491 1.60036 -2.50853 -5.26582 3.16067 
14.9147 4.14506 -7.41855 -0.0383755 0.14615 -3.05064 3.75594 3.12262 -2.92626 
-1.07791 -5.15517 10.0483 -5.01852 -0.753307 2.55088 3.30646 -5.22887 9.39139 
3.25437 8.26077 12.0402 -6.1796 -5.2431 1.74227 -2.85605 -4.7479 -4.12826 
-7.50418 4.2164 -2.05912 -5.61375 -1.21991 4.55144 10.0517 -6.74538 -9.87377 
0.589982 -5.7655 10.0249 -0.120474 4.28774 0.875376 -6.19314 -6.19523 4.91202 
-3.23026 7.95611 6.4255 1.91764 2.99987 -3.53397 4.21212 -6.87234 0.70372 
0.157725 -2.57353 5.56534 -4.20389 0.911706 -2.5803 2.57674 -5.97186 -6.07564 
-2.97151 3.6253 -6.63256 8.26555 10.4271 -6.75101 6.79473 4.7413 -5.2378 
5.69221 -1.67819 -7.68461 1.98098 0.0798489 2.76571 0.440321 3.47589 -1.68592 
-5.13827 0.259137 -4.14392 -3.30876 -0.036785 -3.15893 3.32334 5.59843 -6.61565 
-3.63942 1.12447 -7.30032 -7.70585 -2.78108 13.1592 2.68735 -8.674 7.59669 
3.78587 5.2206 7.15274 -3.59631 11.5504 6.69464 0.445393 7.98745 6.73932 
-5.23041 -4.18284 9.17196 7.75726 -5.94381 0.0987922 9.64724 2.86662 -1.48377 
-1.77723 -0.747075 -4.29537 1.7525 8.67569 -4.73434 -6.92026 -2.88071 0.148689 
0.195573 5.31702 -1.13696 -1.54615 -2.03303 8.38739 10.012 -0.196386 -6.05453 
-0.969885 0.430986 0.489337 -3.5142 5.75111 4.67948 10.3553 -8.2347 0.397106 
5.79461 2.34586 -2.98884 1.83742 1.50611 -0.566357 5.09212 -1.64243 -3.14218 
-3.77069 -9.10976 -1.46401 -0.819244 -5.14673 4.24175 0.680117 5.53057 -3.01484 
-4.67911 -3.08509 -2.05886 0.335653 1.30796 8.38624 1.61145 6.49913 0.329269 
-2.03074 -5.78941 0.423063 -0.709895 0.549276 12.6695 2.89754 11.2298 -2.48169 
-5.33425 -3.81408 0.516814 7.8578 12.8053 -2.13561 0.39603 3.13322 -1.34633 
-3.85008 -4.01488 1.69635 5.01123 9.27078 9.94293 -0.796146 9.86036 4.94799 
7.89436 0.66029 6.27632 2.05541 4.54107 -5.96345 7.09717 3.42826 8.33476 
-7.11147 2.47034 -8.27621 0.0189728 -5.69242 -5.68347 -4.52691 10.6479 8.249 
3.09951 0.774958 -2.69503 -6.57609 1.3242 2.6224 5.43102 -2.58478 -2.26239 
-2.52963 4.87641 -1.8226 -3.43542 2.56675 -3.76952 -10.0416 -9.5143 -1.41918 
3.05386 5.58393 -4.29171 0.780746 3.34967 -0.383006 -0.416615 -4.46486 9.26416 
0.144028 10.3111 6.22413 9.12284 10.9414 10.1434 9.94651 -0.564845 -6.43586 
-3.26947 9.97109 9.80499 14.143 6.20074 4.31487 5.72085 10.078 -3.30786 
-0.09987 2.18796 0.805367 -8.55891 3.76589 6.41918 -0.636527 -1.42824 -6.00195 
-5.35659 0.797708 5.48593 2.49512 0.0597383 -3.03293 -9.52748 0.28488 1.46271 
3.02931 4.09733 10.8457 8.29744 -2.28114 3.71385 -3.20397 -3.23419 -2.0552 
-0.785034 -0.941301 1.62024 0.930705 3.95949 1.88435 -1.54205 3.61361 -4.14281 
-3.25349 3.07381 5.09091 11.4985 0.736063 5.71447 -2.77016 2.0803 -9.96696 
-4.31187 -4.34718 -11.792 -7.56308 -7.17135 9.86762 6.72828 -8.43172 0.0300171 
-5.80169 2.00036 3.53727 -2.9408 -3.43302 0.0266449 -7.44051 4.33117 6.01915 
0.703657 -4.78343 -2.01396 -1.30771 -4.57482 -1.88604 -5.52926 -5.10377 2.03048 
1.36141 7.53916 -1.53287 -4.48237 -6.60602 0.0384363 5.62862 -4.55733 -6.62658 
2.07467 11.1371 -0.569222 0.00554201 -1.58445 0.17397 6.60094 -5.32627 3.25857 
7.53986 -0.604276 11.277 -2.55265 -4.07635 -3.87436 -9.20732 -8.64107 -2.16092 
-2.9164 -2.2429 9.25195 -7.22319 1.18284 7.32793 -5.19729 -0.368606 9.1914 
12.8673 8.96924 4.55812 -2.82815 -5.82204 -2.32753 2.26033 4.89717 1.3123 
8.5063 -0.131783 3.01563 -9.22663 10.0522 4.94581 3.31192 -6.57389 -3.73328 
1.89761 -7.54665 -2.15575 4.12819 -3.46306 2.35159 3.71501 2.35903 1.35901 
1.83698 -1.13203 -2.49328 -0.736175 -3.59615 -0.954731 -3.8602 -1.15429 -0.986044 
8.5457 1.85369 7.46143 3.6934 -1.82378 2.20221 4.40875 -0.915183 -7.56065 
-7.13384 -0.12969 -9.71813 -8.06235 -5.56719 -6.39435 -2.70506 2.63609 -2.85904 
4.77633 -5.81474 -5.44497 1.78682 3.542 11.3113 12.0833 5.01568 2.91841 
-3.37695 -4.52779 -4.13794 7.78841 -4.66191 -3.84875 -2.31305 -3.35546 -0.475461 
-3.28006 -3.98407 1.9418 -3.16712 -0.81104 -10.3229 -4.5 -5.56204 -1.27401 
-2.11935 9.14187 -1.19714 3.48018 1.16262 -5.36664 -0.316997 2.4145 0.750688 
0.0684894 1.63266 -8.20675 -6.01041 -1.76515 -4.9356 -0.513901 7.76006 -0.403219 
1.90047 -4.63636 -2.63069 -9.35734 -6.36432 1.89226 -0.108277 1.3312 -3.21204 
-0.341841 -0.929095 -4.20833 4.127 8.04345 2.53412 7.50898 3.75771 -2.11164 
-2.63842 -1.16702 2.23355 3.14058 -4.95072 -2.90171 -2.66322 -5.31978 2.4411 
0.885481 -6.10379 3.2376 2.38875 -7.31625 2.74423 6.82541 8.42114 12.5114 
-7.47952 -0.323914 -0.359145 -2.40926 7.36611 9.24782 8.48948 8.98686 2.14984 
6.57241 0.349796 -1.82396 4.4471 5.19506 10.3634 2.55828 -3.90229 -1.54422 
-2.26638 7.59966 -4.571 -1.07837 0.427764 -3.65264 6.21778 -4.59854 -3.73488 
4.55477 7.52612 2.33159 8.46504 2.81151 -4.61732 -0.386485 -2.23148 -4.61164 
3.43526 6.67963 3.95407 2.3324 -5.02899 -2.55211 0.792444 -6.02806 2.22668 
-8.12382 -2.95951 2.70047 8.9072 6.95163 3.53524 10.8093 7.4617 0.643553 
-4.19756 3.44812 -0.692837 -0.33901 -0.59489 -1.2445 3.64135 -3.20438 -2.03745 
-5.22564 -4.80905 -5.68634 2.67168 -1.56451 0.168061 3.69085 3.4848 -1.61362 
-7.02251 -1.51081 2.95989 -1.89588 5.85985 4.50373 -0.994444 -3.76998 -6.28447 
2.65167 -9.41095 3.21592 6.1754 -5.81931 3.25405 0.942541 -4.65662 -2.29077 
0.097472 -1.52039 -1.44819 0.207292 8.77286 -5.02589 -3.68247 -6.47167 -3.36479 
-0.118928 2.71782 -4.43709 5.15488 -7.04643 -4.59225 3.13037 9.20007 11.9945 
9.86794 -5.17624 1.34986 -6.21556 -5.05178 -7.15932 -6.30328 -2.02764 -1.18384 
1.9446 -8.47268 -4.05621 -1.01748 7.75156 4.68141 0.639131 1.85044 8.00147 
6.30596 3.16348 -0.260817 -3.24171 -7.37573 1.49127 -0.0143261 -4.51277 0.0683281 
-3.77896 2.04586 1.16439 -6.24574 -5.23874 -5.0979 -3.12309 -0.979062 7.22783 
7.58651 7.24999 0.141287 -0.559447 -1.17785 6.24814 1.6579 5.76945 6.96071 
11.8205 6.10625 -0.46019 -0.479107 -3.15457 -1.58777 7.67294 6.38028 -2.54082 
-4.62269 -5.15558 -3.96303 -7.10891 -3.09971 -4.92902 0.12071 3.45709 4.09372 
-0.0681477 2.95999 9.5942 3.62059 3.46566 5.64788 3.05719 8.24532 -4.07913 
-2.14159 1.16351 7.416 -6.49155 -7.43465 -5.86388 -4.9029 -7.3314 -2.98733 
0.199148 7.98473 3.22122 -3.36829 -5.15381 -6.46732 -7.21769 0.380735 -0.912081 
-1.02782 -4.65551 -3.10179 -0.741688 -1.92215 -5.41577 -1.26484 -4.69394 -6.69283 
-1.91763 -6.1172 2.70932 4.9326 7.51526 3.14647 5.59917 1.4554 -0.32411 
-0.239781 -5.32967 11.8739 7.55003 13.1121 6.74428 9.06083 8.42326 10.5227 
7.18856 2.51133 -8.79583 -5.81844 14.229 12.826 14.3037 13.0513 -0.582052 
4.81445 3.7982 -6.97992 -5.0697 -1.28733 -1.60039 -5.45725 2.40627 2.44284 
2.60483 -1.83923 -1.2525 -3.65439 -1.60669 4.70514 7.09639 6.45216 -3.01959 
-2.71285 -0.358471 2.00623 0.113695 5.51659 7.56666 5.97335 -0.328228 -3.08946 
1.45651 1.70886 1.12688 -2.28292 -0.153567 -1.03476 4.05806 1.62148 2.56962 
-1.58545 -2.1524 -0.853563 -5.09419 6.08793 8.08431 11.8855 9.00835 12.175 
1.4854 -6.09133 -2.49591 -5.39117 -12.1998 -11.3211 -6.58134 -10.0451 5.00763 
1.26134 2.77587 2.33435 3.78835 4.52625 0.244092 -5.42973 1.52848 5.6811 
2.16069 0.805559 3.22421 1.82316 0.06359 -1.36927 -0.453125 -1.49254 -1.76591 
-2.36366 -2.36314 1.70667 5.72844 4.66435 -0.481573 -6.49669 -2.34475 5.48881 
1.48932 4.49437 2.18814 4.75417 1.84082 -4.29336 -2.14473 6.57206 10.5811 
6.99188 5.24373 6.88393 -1.63696 4.78493 8.06 5.67406 3.18736 -2.02588 
-2.92819 3.04567 -4.70934 7.30985 5.30704 11.3567 9.13178 9.02309 6.90514 
1.23899 4.38749 -2.17571 4.42239 -2.59197 -7.11671 -8.22621 -5.66902 -6.63516 
-4.21586 -3.11062 -1.40605 4.16063 3.57938 7.18511 -7.49296 -6.0186 -3.71089 
-4.17176 -0.609186 1.47421 -5.36211 -5.32054 -6.92617 -4.93342 -6.48927 6.98383 
10.991 7.40583 -4.89859 0.289019 -1.21576 -0.616557 -6.32637 -7.16796 2.08443 
-2.43974 2.26339 -0.633087 1.67614 7.23258 1.3916 2.73665 -2.85555 7.92226 
9.28004 1.37173 -3.78973 -4.81852 7.53179 6.17309 2.4928 -7.25672 -6.83725 
-4.29634 -1.98829 -6.9645 -5.43782 -7.88011 1.79623 -2.18405 2.06316 1.87139 
5.74856 -1.76026 -2.99689 -1.38827 -1.84651 1.69154 -1.35274 -4.01807 4.48532 
-0.91185 0.0389669 2.12308 -1.69612 -0.420375 -2.33212 1.50208 -6.67271 -2.14195 
-4.43258 -4.92378 -4.48291 -3.03354 -3.32466 -6.67258 5.32484 8.35233 5.14886 
-1.93305 0.0747561 -1.5427 0.702488 -2.46366 -2.62038 -7.27124 1.13916 2.46293 
-0.929582 -1.77881 -7.69397 -6.76609 -1.65848 -6.5358 -3.27225 -4.15908 -6.61498 
-8.66848 -5.78357 -7.64914 1.20093 2.39229 -4.53686 8.47977 6.21935 4.98082 
-0.956954 -3.11 -7.44135 -3.17969 -4.64798 3.6854 6.03644 9.61307 13.7494 
13.3809 -4.08451 2.08136 0.0139221 -5.67669 -0.5479 -1.35573 2.39216 -7.11829 
-7.15409 -1.79862 5.74752 0.14703 -0.22499 4.08883 3.6454 0.442215 -3.54068 
4.93388 10.1197 5.1 5.49285 -3.11126 7.46214 1.86487 -3.51239 3.40942 
1.95873 -3.35247 -5.48217 -2.72328 -6.22592 -3.09363 -5.90548 -2.03385 -5.91673 
-6.9056 -2.934 -8.03597 -8.28804 -4.36596 -1.17917 -6.58524 -6.13921 -1.54448 
-5.75001 -5.85406 0.068965 0.952669 10.9621 9.35775 -1.60441 -4.66134 -6.0832 
4.03403 -4.20364 8.03224 2.86767 3.23015 -5.52023 -1.64877 3.92171 2.42884 
-1.07256 2.14586 -3.70609 -2.5531 -3.75517 -2.21526 -7.59301 -3.90382 -8.82948 
-8.83931 -3.86793 2.9529 -0.00764982 -4.42539 -5.7413 -3.73254 -4.86929 -5.64399 
-9.51044 7.34297 11.7347 4.51594 4.89064 0.0856973 3.3486 -1.45189 0.674903 
-2.03744 -6.04171 -1.70867 1.44451 -4.97552 -3.74358 -8.57978 -8.00609 -8.53529 
-4.57596 -3.87879 -1.14686 1.59952 1.48844 1.10987 0.500126 -0.820681 -4.60628 
-5.52541 -2.44361 -3.02014 -0.564164 1.22377 -2.32363 1.97538 5.19856 6.20387 
6.72747 8.79094 6.01042 7.96784 1.55186 3.36839 -0.645991 -0.999711 -1.00278 
-6.4752 -10.0876 -5.61265 5.25296 7.04856 0.412173 6.10136 1.5486 0.54654 
-7.64807 -2.74249 -9.73933 -9.24286 -5.86137 -5.31119 -5.03311 -6.83482 -6.3135 
5.09953 3.87655 1.21807 0.734816 7.37926 3.22928 5.41056 -9.13177 -6.18246 
-3.78713 1.28173 -1.23739 -0.955488 5.85941 0.822955 -5.61988 -5.97288 -7.4259 
-2.94925 0.296859 3.65017 1.11128 -7.71059 3.7285 -0.74378 3.50725 -1.07623 
-4.46003 2.51739 0.016382 -2.4094 0.98876 1.61621 7.44481 10.5168 11.1728 
8.75315 6.14484 3.46759 2.07302 7.76435 1.79801 1.77782 2.79245 11.699 
8.43996 9.91684 7.97609 13.3445 -2.37393 -4.79688 -5.34646 -1.27436 -2.42054 
3.69077 3.08126 6.20023 -2.69744 -2.47589 0.207003 12.3633 10.9893 9.51457 
7.31413 6.33546 -2.91367 2.39597 4.40891 0.428538 0.711306 -6.45431 12.2082 
-1.4377 8.30196 2.14734 -2.06765 -2.95204 -1.60044 -4.01108 6.07784 12.0669 
9.75119 2.99301 -3.03729 6.2335 -0.466622 2.69801 -0.269546 2.96293 0.731708 
4.96496 2.68937 2.4326 -3.14052 -2.86883 -0.848005 0.229222 7.93643 7.63353 
8.58801 6.22758 5.29038 3.08919 -0.870219 -1.63153 -4.91974 -4.00621 -4.9332 
-2.94076 -2.53334 0.192758 -4.93562 7.04651 3.79534 8.40418 7.67864 8.97406 
-0.238838 3.59308 0.273903 -4.44355 -5.55657 3.96241 -2.46538 -1.53143 -0.598529 
-6.08818 0.316587 0.307148 6.25424 2.81186 -0.733476 -10.1645 -4.24282 -0.236271 
-4.66418 -1.80288 0.287785 2.62071 3.27901 6.76632 7.63438 10.9753 10.8236 
8.32173 6.01502 5.24255 6.62856 7.6372 8.77784 2.83616 6.71982 5.44356 
5.22326 3.77125 -1.85656 0.300149 2.94742 -0.0238578 5.46171 7.44702 -2.62927 
-1.37256 -1.8908 -1.14234 -0.278314 0.210393 -0.206217 1.08559 1.24639 -1.94551 
-0.678017 -2.59169 -3.10354 -3.51517 -1.73398 -4.47449 -6.63426 -5.01063 -0.994883 
1.21076 -3.65389 -2.96723 -4.35826 -8.53101 -0.230688 -7.78183 -2.81518 -2.44279 
0.583587 0.167849 1.831 -0.664927 -1.69229 4.4263 10.6891 4.70247 9.9437 
6.11661 5.33295 -4.28789 0.852592 -3.72679 -6.57173 -4.99221 -0.360388 -2.53877 
-5.4314 3.66581 -2.03948 0.536503 6.15935 4.41545 -0.587849 -2.07691 0.81476 
-5.93926 -5.70986 -7.08685 -0.80145 -3.88911 1.58508 1.70167 -3.68231 -5.55032 
-6.38093 -6.21962 1.98722 6.22401 -1.55073 -0.660702 -4.31857 3.62351 7.32097 
3.24314 8.34603 2.08672 8.5056 6.51126 3.71726 1.62707 -3.37524 -3.7052 
1.14822 -0.600041 5.90345 6.56761 1.77201 1.71662 5.59411 3.03363 2.17109 
1.16189 6.87887 10.1519 10.5245 -10.783 -8.71721 -4.43734 -0.0796428 -5.21521 
-8.48976 -8.76343 -4.2714 8.76954 -0.736299 6.16946 -0.37267 4.72378 1.56139 
6.3118 -3.09272 -6.94974 -3.99024 -4.4639 -2.58313 -1.23629 -3.37918 -4.49412 
-2.35847 -4.99614 -1.62743 -0.464029 1.08002 3.06162 5.50469 4.03402 -5.52888 
5.98661 4.86015 11.2221 3.52374 2.70152 -5.51536 6.83732 1.89317 5.81242 
4.86428 8.47377 3.32148 0.159508 -0.341628 1.83811 8.04294 0.457796 0.563173 
0.462356 2.93459 10.9212 10.0789 9.83107 8.01993 -5.39834 -5.70599 -3.74872 
1.19376 10.1858 6.08742 0.980167 -5.24336 -4.55666 0.336488 -0.446749 -1.15801 
5.53455 11.1084 5.94013 1.15193 -3.7087 -5.99795 2.28013 -3.67871 1.24246 
1.22412 -2.04889 -6.12873 -8.24977 -5.9886 -5.69294 -4.34959 -3.84889 -7.14274 
-2.69286 -1.51962 4.00881 5.9108 4.95234 1.41856 1.14189 -1.20791 -4.98915 
-8.95504 -6.05981 -1.09285 1.0972 -4.21855 1.62808 2.56043 -1.07339 7.76443 
3.23004 6.43263 4.98281 4.36708 -1.68512 -2.62054 -1.70793 -6.25791 -6.87924 
-1.00627 -0.119116 -3.33895 -1.68395 -2.04113 11.1052 6.11328 7.7848 7.15187 
4.84117 -3.66953 -1.5986 -2.09929 -5.06236 -6.69005 -3.42593 0.0166923 5.99937 
10.9627 10.472 -2.64437 -6.41666 -5.29827 1.27691 6.52498 -5.99867 -2.53562 
-7.74948 -8.54891 -5.10914 1.26894 -0.892878 0.472169 9.16786 11.0251 8.71267 
9.46681 4.37888 2.30619 12.5551 7.3119 10.8468 8.93026 5.96558 1.09487 
4.87442 2.4756 -2.22039 -0.239583 -1.20192 6.00546 5.46186 -4.77454 2.03967 
-0.531283 5.13809 10.7608 6.70701 9.72663 12.0763 -2.9284 -2.26646 -4.5142 
-2.36124 -4.91634 4.37198 0.712873 -1.54542 -9.26955 -8.04523 -7.79033 -4.12063 
3.41737 13.5004 11.9295 6.38187 0.478828 6.68442 6.00835 0.793784 -3.1345 
-3.58221 -7.82124 -4.71079 -6.8198 0.915063 2.26291 0.344912 5.74077 7.76549 
-0.871254 -1.19059 0.739364 -3.78772 0.255713 4.03796 -1.09452 1.05946 0.272302 
-8.0592 -2.9168 -4.46391 0.721053 -0.0742153 -7.73909 -3.31243 -9.31459 -6.07199 
-4.65584 -1.9344 2.11324 5.88337 5.6288 3.08035 -0.864808 -2.46341 -4.06158 
7.64774 -2.89913 3.96462 1.84585 -5.38957 -2.27345 -4.43077 -7.51425 6.70013 
5.09358 4.02661 2.57584 8.59988 9.36057 10.7024 8.71198 8.81213 8.23336 
6.05458 11.3557 11.832 12.1904 -6.10453 -7.28054 -8.87448 -4.30245 -1.46703 
4.28509 2.35558 7.32152 13.3293 11.8081 5.70058 10.4529 7.76368 8.77805 
11.5067 10.5124 11.9725 8.27679 3.55579 6.06 -0.713567 -2.41705 4.92819 
5.11917 1.34039 -3.6535 -8.08589 4.46448 4.55069 5.45126 4.92865 3.31478 
-1.31703 -0.744448 0.550221 -4.56454 -7.47414 -7.95349 -3.42405 2.60957 7.58375 
7.79038 6.96113 2.65955 2.99821 -5.315 -8.3437 -5.72971 -3.74056 -2.86086 
3.0554 -5.62667 -7.53762 -7.32534 4.57403 8.00478 8.38962 10.0514 11.6033 
1.93892 4.71736 0.0438331 -0.0567952 -0.306827 -2.1732 -3.36365 2.39551 -3.74481 
-2.59377 -2.14462 -0.233616 -0.754616 2.02559 1.20052 3.61938 1.87811 -0.558923 
-2.21632 2.49159 2.11637 -1.39087 1.79926 -4.87527 0.856989 -1.63613 -2.268 
3.78923 5.86726 5.45831 9.61942 9.94214 3.58443 7.1895 4.56366 -0.249888 
-6.11475 -2.67571 -6.91252 -3.4429 -5.69524 -2.3454 -7.60471 -10.1346 -7.21621 
-5.85423 -7.12984 -8.00669 -3.40337 -4.71703 8.48316 6.92896 0.164108 -3.84898 
-2.78316 -1.49237 -3.91909 -2.81055 -5.08704 1.88622 4.58557 1.25023 -3.01691 
-3.70278 3.92603 9.10414 8.23956 -3.91312 -6.74951 4.73703 4.21967 8.26546 
9.0023 6.4555 3.75493 -0.4121 -2.40614 0.293162 -2.41803 -4.88316 -2.4208 
-1.11803 -1.33488 -0.886041 -4.51153 -5.1796 -5.83541 -4.94725 -4.19307 2.85124 
7.16858 9.88533 -2.55661 -8.17563 -7.93027 -6.49375 -5.92842 -3.21521 -2.73814 
-5.88367 -1.67193 2.51882 0.166246 -6.72706 -8.57411 -8.1973 -1.53979 5.42393 
6.17538 9.98495 12.2078 9.65819 2.95569 -4.27422 3.35394 -4.61043 -8.05263 
-7.77823 4.65004 -0.443795 -6.05798 -5.79459 -7.25259 -3.4747 -2.20489 -4.41262 
-4.50258 2.73658 1.89186 6.44444 4.4413 7.43407 0.143411 -2.7582 5.71426 
7.81234 6.80446 8.05621 9.42747 -2.60832 8.12971 6.56714 -4.69649 -2.70154 
-6.07456 -4.38748 -6.0565 -6.80389 -10.3331 -6.19328 -7.48346 -7.37557 -6.77525 
-5.31892 -6.48089 0.171336 4.81624 1.75432 4.96068 0.472676 -2.34642 -8.43608 
-9.20155 -0.223233 8.4881 4.54222 1.4829 -3.11973 -2.11964 2.52484 6.33589 
0.734864 -5.69487 12.9334 14.1046 12.4865 11.8893 9.75439 1.61748 4.34223 
7.94888 5.75752 3.92799 1.1318 -6.42127 -1.01226 2.77775 3.69752 2.04116 
-1.91701 4.19311 5.72133 8.11224 10.2158 1.7799 5.37416 4.75564 4.50572 
7.43797 2.84124 9.51442 6.91907 -0.265108 -6.81029 -9.08097 7.93874 5.4503 
9.11172 5.72955 2.20786 -2.17726 -0.22779 -1.88377 -5.34523 -2.05038 0.80466 
3.54575 -1.50987 -1.42366 -6.02754 -8.41399 -6.50776 -5.95167 -1.71047 0.91139 
1.17885 1.10203 2.64526 -2.53025 3.08035 7.20731 5.03653 5.42001 5.32996 
-0.53422 -3.76183 -0.815823 2.88925 1.02856 0.465659 -0.16725 -1.14716 -2.60144 
-1.35797 -2.12491 -2.60103 -3.50355 -1.14076 -1.73615 -0.186249 -2.559 1.72768 
-2.17461 1.97764 0.79405 0.961834 1.75014 2.95963 7.78581 3.2667 7.16337 
6.15235 4.98549 2.63467 6.29461 4.14206 1.39126 -0.901617 -3.26793 2.09175 
-3.20158 -5.17791 2.15272 -6.91213 2.24198 -4.2005 -6.81033 -5.46995 -2.32451 
-3.76898 2.66405 -0.736999 -2.95494 -9.37468 -4.16562 -7.97437 -7.9632 -0.470065 
0.738597 -0.711601 -4.46707 -3.05131 -0.638547 0.191875 3.27022 -2.34032 2.01554 
2.64704 1.93483 0.738798 -5.61105 -0.447463 -2.70531 -4.02408 -3.41604 2.80234 
8.03212 -0.12793 6.22902 10.5704 9.81448 10.2668 10.3932 1.15581 6.56513 
9.04958 2.39827 5.40157 8.87035 7.43915 5.76114 4.07179 -5.43968 -1.34542 
-1.11068 -2.84461 -6.43006 -7.78978 2.17296 8.83773 3.69437 2.69137 -3.27997 
-3.14984 -5.88052 0.712628 4.31697 -4.02237 4.52593 3.54766 1.66145 -4.69775 
-7.02209 -4.48519 -0.0249141 1.01391 -3.43759 1.23213 4.95967 4.27431 -4.62113 
-4.37996 -4.99518 -6.58636 -5.4348 -0.726441 -6.01041 -3.80731 -1.43183 -9.70214 
-6.86978 -8.4646 -5.2334 -2.89001 -6.31203 -3.64328 0.977713 1.89488 0.977201 
1.09304 1.76337 10.1519 7.09805 7.58213 8.32475 1.59946 -5.64419 0.199449 
4.25432 6.87336 8.54952 5.72955 0.519437 -2.46572 3.46246 1.99003 2.22826 
1.48824 4.86238 -1.22127 -2.21095 -2.37708 5.58939 2.88448 -3.2911 -3.9327 
-2.8731 -3.18341 -5.78596 -7.70458 -4.1383 -5.98499 -6.38659 -2.43327 1.23381 
2.98892 -0.197986 -0.220547 -2.48548 1.34425 -7.43556 -2.74626 1.17619 -5.56184 
-6.84983 1.03109 4.47244 1.42121 10.1066 0.331323 -5.90953 -1.06192 -1.7517 
-5.71559 1.66632 3.61435 -4.72995 2.3557 -1.13963 -5.90503 -3.16122 -4.68374 
-9.31367 -7.25536 -3.51181 -3.06969 -6.80997 -2.94188 2.03581 3.8491 -1.00466 
0.831294 0.728911 -2.25073 -1.39981 -4.75411 -4.87129 -3.14119 0.470956 -4.00257 
-0.0688188 -1.41952 -1.32919 4.07258 7.68519 8.59656 2.29191 7.38472 6.20775 
1.67671 -2.81456 -1.8441 -2.60445 -1.30782 -0.12756 6.37973 6.27701 1.2697 
2.17292 1.75435 5.16949 5.03488 -3.08409 -9.39042 -3.9079 2.7143 1.31912 
2.88928 7.485 1.22548 -1.92997 -5.62635 -3.57174 0.711379 -5.87179 -2.15351 
1.61996 0.0603426 -3.92664 -3.54726 -3.10429 -6.90965 -4.39853 -0.369187 -0.444975 
0.657139 -0.819495 1.07679 -4.04118 -5.46329 -7.57827 0.730128 -3.3295 -9.68336 
-4.21454 0.100317 2.41532 5.34853 0.780148 -5.3081 -4.06026 -3.96048 -6.47908 
-2.6283 -1.27798 2.3687 7.29904 9.37669 11.3811 3.62939 8.54576 13.696 
12.2215 7.80332 11.7238 0.248328 0.527617 -4.0158 -8.61731 -8.35027 3.71721 
-1.18701 -6.44388 -1.65299 2.23487 5.94027 13.6478 12.2741 10.5868 5.77457 
9.11663 9.67826 9.31932 9.34847 8.63791 9.13412 3.71086 1.14817 3.86221 
1.85613 0.778023 4.01085 6.06596 -5.26495 1.93367 1.24801 -7.48848 -6.00559 
-5.64948 -6.41274 -5.37791 -4.79026 -5.92174 1.8973 1.77243 7.01815 6.99158 
8.88421 6.43992 1.22413 -3.35805 -3.63575 -4.8328 -4.5141 3.08435 -1.8908 
-5.79599 -8.04001 -6.55854 3.09386 1.54418 -2.19243 -1.81513 1.47884 3.35553 
1.58292 1.45192 8.96601 6.8264 0.255605 -5.87252 9.59986 11.9756 0.33485 