# vtk DataFile Version 5.1
vtk output
ASCII
DATASET POLYDATA
POINTS 40962 float
0 0 100 27.64 -85.07 44.72 89.44 0 44.72 
27.64 85.07 44.72 -72.36 52.57 44.72 -72.36 -52.57 44.72 
-27.64 -85.07 -44.72 72.36 -52.57 -44.72 72.36 52.57 -44.72 
-27.64 85.07 -44.72 -89.44 0 -44.72 0 0 -100 
-42.53 30.9 85.07 -26.29 80.9 52.57 16.25 50 85.07 
-42.53 -30.9 85.07 -85.07 0 52.57 16.25 -50 85.07 
-26.29 -80.9 52.57 52.57 0 85.07 68.82 -50 52.57 
68.82 50 52.57 58.78 80.9 0 95.11 30.9 0 
0 100 0 26.29 80.9 -52.57 -58.78 80.9 0 
-95.11 30.9 0 -68.82 50 -52.57 -95.11 -30.9 0 
-58.78 -80.9 0 -68.82 -50 -52.57 0 -100 0 
58.78 -80.9 0 26.29 -80.9 -52.57 95.11 -30.9 0 
85.07 0 -52.57 -16.25 50 -85.07 42.53 30.9 -85.07 
-52.57 0 -85.07 -16.25 -50 -85.07 42.53 -30.9 -85.07 
-22.11 16.06 96.19 -13.82 42.53 89.44 8.44 25.99 96.19 
-22.11 -16.06 96.19 -44.72 0 89.44 8.44 -25.99 96.19 
-13.82 -42.53 89.44 27.33 0 96.19 36.18 -26.29 89.44 
36.18 26.29 89.44 44.92 86.27 23.25 67.08 68.82 27.64 
50.14 70.2 50.57 14.37 96.19 23.25 30.9 95.11 0 
0.7 86.27 50.57 -13.82 95.11 27.64 -87.05 43.39 23.25 
-80.9 58.78 0 -68.16 69.38 23.25 -81.83 27.33 50.57 
-94.72 16.25 27.64 -68.16 -69.38 23.25 -80.9 -58.78 0 
-87.05 -43.39 23.25 -51.28 -69.38 50.57 -44.72 -85.07 27.64 
44.92 -86.27 23.25 30.9 -95.11 0 14.37 -96.19 23.25 
50.14 -70.2 50.57 67.08 -68.82 27.64 95.93 16.06 23.25 
100 0 0 95.93 -16.06 23.25 51.28 69.38 -50.57 
36.18 58.78 -72.36 59.72 43.39 -67.46 -50.14 70.2 -50.57 
-44.72 52.57 -72.36 -22.81 70.2 -67.46 -82.26 -25.99 -50.57 
-63.82 -26.29 -72.36 -73.82 0 -67.46 -0.7 -86.27 -50.57 
5.28 -68.82 -72.36 -22.81 -70.2 -67.46 81.83 -27.33 -50.57 
67.08 -16.25 -72.36 59.72 -43.39 -67.46 -59.72 43.39 67.46 
-51.28 69.38 50.57 -36.18 58.78 72.36 -5.28 68.82 72.36 
22.81 70.2 67.46 -59.72 -43.39 67.46 -81.83 -27.33 50.57 
-67.08 -16.25 72.36 -67.08 16.25 72.36 22.81 -70.2 67.46 
0.7 -86.27 50.57 -5.28 -68.82 72.36 -36.18 -58.78 72.36 
73.82 0 67.46 82.26 -25.99 50.57 63.82 -26.29 72.36 
44.72 -52.57 72.36 44.72 52.57 72.36 63.82 26.29 72.36 
82.26 25.99 50.57 68.16 69.38 -23.25 87.05 43.39 -23.25 
80.9 58.78 0 86.18 42.53 27.64 -14.37 96.19 -23.25 
-0.7 86.27 -50.57 13.82 95.11 -27.64 44.72 85.07 -27.64 
-44.72 85.07 27.64 -30.9 95.11 0 -44.92 86.27 -23.25 
-95.93 16.06 -23.25 -82.26 25.99 -50.57 -86.18 42.53 -27.64 
-67.08 68.82 -27.64 -94.72 -16.25 27.64 -100 0 0 
-95.93 -16.06 -23.25 -44.92 -86.27 -23.25 -50.14 -70.2 -50.57 
-67.08 -68.82 -27.64 -86.18 -42.53 -27.64 -13.82 -95.11 27.64 
-30.9 -95.11 0 -14.37 -96.19 -23.25 68.16 -69.38 -23.25 
51.28 -69.38 -50.57 44.72 -85.07 -27.64 13.82 -95.11 -27.64 
86.18 -42.53 27.64 80.9 -58.78 0 87.05 -43.39 -23.25 
81.83 27.33 -50.57 94.72 16.25 -27.64 94.72 -16.25 -27.64 
5.28 68.82 -72.36 13.82 42.53 -89.44 -8.44 25.99 -96.19 
22.11 16.06 -96.19 -63.82 26.29 -72.36 -36.18 26.29 -89.44 
-27.33 0 -96.19 -44.72 -52.57 -72.36 -36.18 -26.29 -89.44 
-8.44 -25.99 -96.19 36.18 -58.78 -72.36 13.82 -42.53 -89.44 
22.11 -16.06 -96.19 67.08 16.25 -72.36 44.72 0 -89.44 
-11.16 8.11 99.04 -6.92 21.3 97.46 4.26 13.12 99.04 
-11.16 -8.11 99.04 -22.4 0 97.46 4.26 -13.12 99.04 
-6.92 -21.3 97.46 13.8 0 99.04 18.12 -13.17 97.46 
18.12 13.17 97.46 36.63 86.49 34.31 48.15 79.26 37.39 
39.26 78.38 48.11 21.21 91.5 34.31 30.03 92.43 23.55 
14.31 86.49 48.11 7.63 92.43 37.39 -80.47 48.44 34.31 
-78.63 57.13 23.55 -70.94 61.56 34.31 -77.84 40.34 48.11 
-85.55 35.82 37.39 -70.94 -61.56 34.31 -78.63 -57.13 23.55 
-80.47 -48.44 34.31 -62.41 -61.56 48.11 -60.51 -70.29 37.39 
36.63 -86.49 34.31 30.03 -92.43 23.55 21.21 -91.5 34.31 
39.26 -78.38 48.11 48.15 -79.26 37.39 93.58 8.11 34.31 
97.19 0 23.55 93.58 -8.11 34.31 62.41 61.56 -48.11 
56.23 57.13 -59.79 66.68 48.44 -56.63 -39.26 78.38 -48.11 
-36.95 71.13 -59.79 -25.47 78.38 -56.63 -86.68 -13.12 -48.11 
-79.07 -13.17 -59.79 -82.42 0 -56.63 -14.31 -86.49 -48.11 
-11.91 -79.26 -59.79 -25.47 -78.38 -56.63 77.84 -40.34 -48.11 
71.7 -35.82 -59.79 66.68 -48.44 -56.63 -51.62 37.5 77 
-48.45 51.61 70.63 -39.85 45.4 79.69 1.23 46.84 88.34 
-9.68 56.43 81.99 5.55 60.15 79.69 8.86 70.23 70.63 
19.72 60.68 77 -51.62 -37.5 77 -64.06 -30.13 70.63 
-55.49 -23.87 79.69 -44.17 15.64 88.34 -56.65 8.23 81.99 
-55.49 23.87 79.69 -64.06 30.13 70.63 19.72 -60.68 77 
8.86 -70.23 70.63 5.55 -60.15 79.69 -28.53 -37.17 88.34 
-25.34 -51.34 81.99 -39.85 -45.4 79.69 -48.45 -51.61 70.63 
63.81 0 77 69.53 -13.28 70.63 58.92 -13.31 79.69 
26.54 -38.62 88.34 41 -39.96 81.99 30.86 -51.93 79.69 
34.12 -62.02 70.63 34.12 62.02 70.63 30.86 51.93 79.69 
44.93 13.31 88.34 50.67 26.64 81.99 58.92 13.31 79.69 
69.53 13.28 70.63 64.08 75.87 -11.73 75.3 64.74 -11.74 
70.71 70.71 0 68.8 60.15 40.61 77.66 56.43 28.01 
78.47 46.84 40.61 85.09 34.62 39.51 76.27 38.36 52.07 
-7.25 99.04 -11.73 -0.28 96.64 -25.71 7 98.77 -13.99 
45.4 89.1 0 38.32 91.3 -14.01 52.39 84.02 -13.99 
57.03 78.02 -25.71 -39.16 75.87 52.07 -48.49 78.02 39.51 
-35.95 84.02 40.61 -7 98.77 13.99 -22.66 96.39 14.01 
-15.64 98.77 0 -22.87 96.64 -11.74 -96.44 23.71 -11.73 
-91.99 29.6 -25.71 -91.77 37.17 -13.99 -70.71 70.71 0 
-74.99 64.66 -14.01 -63.71 75.79 -13.99 -56.58 78.35 -25.71 
-52.35 84.39 -11.73 -84.25 -13.8 52.07 -89.19 -22.01 39.51 
-91.01 -8.22 40.61 -96.1 23.87 13.99 -98.67 8.23 14.01 
-98.77 15.64 0 -98.98 8.11 -11.74 -52.35 -84.39 -11.73 
-56.58 -78.35 -25.71 -63.71 -75.79 -13.99 -89.1 -45.4 0 
-84.67 -51.34 -14.01 -91.77 -37.17 -13.99 -91.99 -29.6 -25.71 
-96.44 -23.71 -11.73 -12.92 -84.39 52.07 -6.63 -91.62 39.51 
-20.3 -89.1 40.61 -52.39 -84.02 13.99 -38.32 -91.3 14.01 
-45.4 -89.1 0 -38.3 -91.62 -11.74 64.08 -75.87 -11.73 
57.03 -78.02 -25.71 52.4 -84.02 -13.99 15.64 -98.77 0 
22.66 -96.39 -14.01 7 -98.77 -13.99 -0.28 -96.64 -25.71 
-7.25 -99.04 -11.73 76.27 -38.36 52.07 85.09 -34.62 39.51 
78.47 -46.84 40.61 63.71 -75.79 13.99 74.99 -64.66 14.01 
70.71 -70.71 0 75.3 -64.74 -11.74 91.96 37.5 -11.73 
91.82 30.13 -25.71 96.1 23.87 -13.99 98.77 -15.64 0 
98.67 -8.23 -14.01 96.1 -23.87 -13.99 91.82 -30.13 -25.71 
91.96 -37.5 -11.73 12.92 84.39 -52.07 2.31 78.35 -62.1 
15.98 75.79 -63.25 39.85 45.4 -79.69 25.34 51.34 -81.99 
28.53 37.17 -88.34 18.15 29.6 -93.78 32.63 23.71 -91.5 
-76.27 38.36 -52.07 -73.8 26.41 -62.1 -67.15 38.62 -63.25 
-30.86 51.93 -79.69 -41 39.96 -81.99 -26.54 38.62 -88.34 
-22.54 26.41 -93.78 -12.46 38.36 -91.5 -60.05 -60.68 -52.07 
-47.92 -62.02 -62.1 -57.48 -51.93 -63.25 -58.92 -13.31 -79.69 
-50.67 -26.64 -81.99 -44.93 -13.31 -88.34 -32.08 -13.28 -93.78 
-40.34 0 -91.5 39.16 -75.87 -52.07 44.18 -64.74 -62.1 
31.62 -70.71 -63.25 -5.55 -60.15 -79.69 9.68 -56.43 -81.99 
-1.23 -46.84 -88.34 2.72 -34.62 -93.78 -12.46 -38.36 -91.5 
84.25 13.8 -52.07 75.22 22.01 -62.1 77.02 8.22 -63.25 
55.49 -23.87 -79.69 56.65 -8.23 -81.99 44.17 -15.64 -88.34 
33.76 -8.11 -93.78 32.63 -23.71 -91.5 -32.63 23.71 91.5 
-28.53 37.17 88.34 -18.15 29.6 93.78 -2.72 34.62 93.78 
12.46 38.36 91.5 -32.63 -23.71 91.5 -44.17 -15.64 88.34 
-33.76 -8.11 93.78 -33.76 8.11 93.78 12.46 -38.36 91.5 
1.23 -46.84 88.34 -2.72 -34.62 93.78 -18.15 -29.6 93.78 
40.34 0 91.5 44.93 -13.31 88.34 32.08 -13.28 93.78 
22.54 -26.41 93.78 26.54 38.62 88.34 22.54 26.41 93.78 
32.08 13.28 93.78 52.35 84.39 11.73 63.71 75.79 13.99 
56.58 78.35 25.71 59.22 70.23 39.51 60.05 60.68 52.07 
7.25 99.04 11.73 15.64 98.77 0 22.87 96.64 11.74 
38.3 91.62 11.74 -12.92 84.39 52.07 -20.3 89.1 40.61 
-6.63 91.62 39.51 0.28 96.64 25.71 -91.96 37.5 11.73 
-89.1 45.4 0 -84.84 51.61 11.74 -75.3 64.74 11.74 
-64.08 75.87 11.73 -84.25 13.8 52.07 -91.01 8.22 40.61 
-89.19 22.01 39.51 -91.82 30.13 25.71 -64.08 -75.87 11.73 
-70.71 -70.71 0 -75.3 -64.74 11.74 -84.84 -51.61 11.74 
-91.96 -37.5 11.73 -39.16 -75.87 52.07 -35.95 -84.02 40.61 
-48.49 -78.02 39.51 -57.03 -78.02 25.71 52.35 -84.39 11.73 
45.4 -89.1 0 38.3 -91.62 11.74 22.87 -96.64 11.74 
7.25 -99.04 11.73 60.05 -60.68 52.07 68.8 -60.15 40.61 
59.22 -70.23 39.51 56.58 -78.35 25.71 96.44 23.71 11.73 
98.77 15.64 0 98.98 8.11 11.74 98.98 -8.11 11.74 
96.44 -23.71 11.73 39.16 75.87 -52.07 31.62 70.71 -63.25 
44.18 64.74 -62.1 48.45 51.61 -70.63 51.62 37.5 -77 
-60.05 60.68 -52.07 -57.48 51.93 -63.25 -47.92 62.02 -62.1 
-34.12 62.02 -70.63 -19.72 60.68 -77 -76.27 -38.36 -52.07 
-67.15 -38.62 -63.25 -73.8 -26.41 -62.1 -69.53 -13.28 -70.63 
-63.81 0 -77 12.92 -84.39 -52.07 15.98 -75.79 -63.25 
2.31 -78.35 -62.1 -8.86 -70.23 -70.63 -19.72 -60.68 -77 
84.25 -13.8 -52.07 77.02 -8.22 -63.25 75.22 -22.01 -62.1 
64.06 -30.13 -70.63 51.62 -37.5 -77 -66.68 48.44 56.63 
-62.41 61.56 48.11 -56.23 57.13 59.79 -44.18 64.74 62.1 
-31.62 70.71 63.25 -25.34 51.34 81.99 -21.01 64.66 73.33 
-15.98 75.79 63.25 -2.31 78.35 62.1 11.91 79.26 59.79 
25.47 78.38 56.63 -66.68 -48.44 56.63 -77.84 -40.34 48.11 
-71.7 -35.82 59.79 -75.22 -22.01 62.1 -77.02 -8.22 63.25 
-56.65 -8.23 81.99 -67.99 0 73.33 -77.02 8.22 63.25 
-75.22 22.01 62.1 -71.7 35.82 59.79 25.47 -78.38 56.63 
14.31 -86.49 48.11 11.91 -79.26 59.79 -2.31 -78.35 62.1 
-15.98 -75.79 63.25 -9.68 -56.43 81.99 -21.01 -64.66 73.33 
-31.62 -70.71 63.25 -44.18 -64.74 62.1 -56.23 -57.13 59.79 
82.42 0 56.63 86.68 -13.12 48.11 79.07 -13.17 59.79 
73.8 -26.41 62.1 67.15 -38.62 63.25 50.67 -26.64 81.99 
55 -39.96 73.33 57.48 -51.93 63.25 47.92 -62.02 62.1 
36.95 -71.13 59.79 36.95 71.13 59.79 47.92 62.02 62.1 
57.48 51.93 63.25 41 39.96 81.99 55 39.96 73.33 
67.15 38.62 63.25 73.8 26.41 62.1 79.07 13.17 59.79 
86.68 13.12 48.11 70.94 61.56 -34.31 80.47 48.44 -34.31 
78.63 57.13 -23.55 84.84 51.61 -11.74 89.1 45.4 0 
74.99 64.66 14.01 84.67 51.34 14.01 91.77 37.17 13.99 
91.99 29.6 25.71 90.27 21.3 37.39 -21.21 91.5 -34.31 
-14.31 86.49 -48.11 -7.63 92.43 -37.39 6.63 91.62 -39.51 
20.3 89.1 -40.61 22.66 96.39 -14.01 29.66 91.3 -28.01 
35.95 84.02 -40.61 48.49 78.02 -39.51 60.51 70.29 -37.39 
-60.51 70.29 37.39 -57.03 78.02 25.71 -52.4 84.02 13.99 
-29.66 91.3 28.01 -38.32 91.3 14.01 -45.4 89.1 0 
-38.3 91.62 -11.74 -30.03 92.43 -23.55 -36.63 86.49 -34.31 
[...]
POINT_DATA 40962
SCALARS sulc float
LOOKUP_TABLE default
3.61082 -1.65062 -7.40424 -5.60213 8.10453 -4.84496 -4.55139 1.19451 3.9812 
0.104075 -2.6129 4.53294 -3.6262 -3.8685 -2.96967 -5.97322 8.98707 -5.81202 
-6.57211 7.9143 8.67247 9.20265 0.892291 7.9626 -6.48893 5.17143 5.94711 
-0.811105 -6.78092 -3.79067 2.2351 2.91006 3.07688 -0.302906 9.36919 5.93755 
-9.35786 1.98183 -2.58995 6.42803 -0.765195 -4.11901 -4.08838 2.60411 10.2434 
-4.78739 -1.35573 6.99713 1.95166 -1.43598 9.13347 -2.07192 4.59367 2.00179 
-0.693933 -5.90825 0.106944 7.71511 -5.91471 3.09432 -2.39589 5.75062 2.07499 
0.865217 -7.66232 3.39533 7.89508 2.47673 -0.110409 1.73745 -2.05123 -6.30781 
12.8208 4.77298 -2.79172 4.9124 1.8463 2.11874 5.93582 3.26713 1.67126 
9.36279 4.22844 9.92345 0.535951 -3.85954 2.71694 -6.31218 -1.68702 3.78647 
10.4014 2.2186 -0.646606 -1.92132 -7.72428 -0.202953 9.86279 6.25057 7.54427 
0.245553 1.87252 9.97912 -2.67866 4.13564 -9.97631 8.41602 2.33361 -0.720073 
-3.47878 4.97373 -5.61637 -5.37789 10.1955 7.89205 -2.01846 -7.05064 -1.57448 
-0.534298 6.59589 8.03808 -2.90165 -6.3362 -1.99273 -1.66471 2.52704 -2.38333 
-1.73788 2.79076 -1.39838 -7.37774 -4.56889 2.94942 -6.73365 8.02681 4.11713 
-3.2557 -3.09898 5.8827 -5.69535 8.46718 -5.56052 -6.57946 -2.06375 -1.59337 
3.13422 11.3706 2.56475 -1.32714 -10.4097 3.72915 -0.934115 9.92616 -6.15591 
-1.31671 -1.01491 5.52663 -0.707599 4.64596 -0.487548 -3.82657 -0.487233 -8.51799 
-0.429781 5.64109 8.94732 1.90448 4.1562 -4.80281 -0.190597 -2.26912 -8.3537 
4.57401 1.59253 5.99134 -4.46887 -5.93114 4.84808 2.57143 11.0189 -1.09713 
-0.219058 5.81451 8.69256 -1.5907 1.59917 -3.62935 2.15477 3.58282 5.85133 
2.71451 -1.82208 -4.49046 6.5137 5.87325 -10.0409 -4.32092 -0.392726 2.30825 
7.95618 9.89277 -1.45012 4.07061 -0.406238 9.44127 2.63145 1.54156 1.16599 
-2.08079 -5.36926 4.18943 11.6286 8.38598 -3.42612 -5.74498 -8.31576 2.27632 
7.6366 0.623316 2.83373 -5.133 -0.586379 3.14639 -3.83433 -8.42048 -2.92961 
-3.48258 -3.19591 2.18649 7.8732 1.9373 -4.65483 -9.74853 -2.71234 -2.92987 
2.03955 5.48302 12.0414 5.09456 -1.74358 -6.86723 2.43322 -4.01995 -7.47108 
-7.65977 -6.20027 1.44022 -2.55613 8.21958 4.30931 -1.87343 1.19974 -2.76693 
5.66592 -3.18821 1.12618 -1.44303 1.12863 1.78241 -10.1335 -8.43271 4.17286 
14.0338 -5.7557 0.830694 -7.2504 1.29296 -6.22578 -5.5694 -10.4405 2.38746 
0.518493 0.663289 -2.07054 -2.17496 -1.54441 -0.716078 -1.74169 10.8396 -0.797531 
0.252893 -0.915104 3.78537 -2.73194 -4.66518 -8.04444 -6.08469 -3.70615 -1.61966 
10.4794 5.41376 5.35968 -8.56255 -6.92903 1.59427 -6.34767 -6.06271 -5.73491 
-3.81043 -3.56351 4.89939 -1.47543 -6.41122 -5.18007 3.60062 4.56541 -2.70694 
8.83111 -0.82085 -2.67941 0.0667374 -4.0124 -3.031 4.47421 7.8275 11.4359 
12.4967 13.1419 9.50139 13.1141 4.39842 -6.59108 -2.64353 -6.93417 -1.7371 
-2.57912 -6.66299 -5.13918 -6.42872 0.695889 -4.05456 -1.30042 8.73493 2.69165 
10.8169 6.23866 -8.63893 -0.0372432 -6.40996 7.30798 -5.4298 -5.83326 4.0632 
2.10669 10.0395 -1.7717 9.27629 0.71715 4.19993 8.00793 -6.81475 -1.86092 
2.43849 4.55956 -3.65988 0.278279 -3.54625 -5.28469 0.599582 3.58818 -6.74475 
1.18915 2.07696 -1.02074 -5.25766 -0.631926 7.14727 1.67897 -7.43636 -6.31934 
0.06996 -9.05939 5.90658 -1.83666 8.29934 0.0497046 3.42066 5.24604 -2.59084 
7.79838 -7.05049 3.87846 -1.63635 -6.41329 -6.90824 -1.71905 9.30703 8.73467 
0.0455793 -7.42252 -3.22704 3.62928 -4.62315 -4.26473 -4.64454 4.67334 -3.98071 
-2.05208 -2.18937 -0.280979 -1.90417 5.01995 -2.08985 -0.0584314 2.98153 -0.62228 
8.0306 -3.24402 -6.64166 2.74128 -0.488948 4.08972 6.35044 1.02698 -8.27911 
-6.1287 -6.21537 -7.9765 2.31008 12.8323 4.71691 4.29609 -0.952727 3.62281 
5.3896 -3.3039 3.10901 0.339675 0.709387 -2.84522 1.5673 5.00591 -7.11838 
-3.41356 1.0354 3.33876 5.92118 6.28202 4.1986 -8.38241 -5.59784 -4.48465 
0.0341558 -3.90362 -1.098 -5.421 -8.37608 -4.46645 -4.71384 4.44774 7.48695 
4.3461 -5.94584 2.51732 0.353749 0.786685 -5.39577 -3.8005 -3.48427 1.60711 
1.15052 -2.44301 -4.42577 -2.83819 -3.13309 -3.98426 10.0871 8.05692 5.56852 
-2.34537 -3.41716 6.8381 2.81796 3.829 5.16311 -0.445545 2.43663 -4.56365 
-4.82281 -2.86565 0.259166 -2.15585 -8.43677 -8.2309 0.578041 -3.44154 -2.10869 
-5.1488 0.0626925 4.19437 -7.33048 1.89554 5.25492 12.2342 -2.61358 3.4509 
7.54149 1.832 8.48668 6.31657 -1.86298 2.88318 0.255528 5.00772 2.26369 
9.78289 8.89174 3.68522 -6.3091 -4.3079 -2.14049 -10.8144 -10.8813 -3.84559 
-4.37695 2.44836 3.42842 -5.3067 -2.53086 -8.56794 5.43455 9.09969 7.26571 
-0.729178 6.9077 7.26416 -9.37912 -2.76813 0.662867 -3.02801 -4.39261 -5.19402 
-0.788489 6.23757 -1.57532 -1.55669 -8.68672 -1.25282 -0.901576 -7.79386 -1.61598 
-4.2303 -2.74172 -1.40888 1.1913 -0.525836 2.43027 -0.416902 -0.426487 -3.50196 
-4.56029 -5.08597 -5.5011 -0.225813 -5.77885 -0.501569 5.46001 -4.06789 3.30729 
11.2325 7.75843 -5.32035 4.19248 9.61396 -0.543136 6.54431 11.8872 -1.20858 
-0.237814 3.2008 9.54324 -2.49819 8.45396 5.57219 4.33101 2.75079 4.85548 
-0.766186 2.14979 0.076005 -2.13209 -6.83189 0.588081 -1.78294 -9.77364 -7.34381 
-0.148989 6.04143 4.13962 10.6339 11.1194 4.68156 1.97001 15.0424 9.24462 
-0.0682399 -5.51513 -7.51074 -2.68494 4.34222 -0.85902 -1.0669 -3.33673 -9.40293 
-9.12651 -6.53365 6.39364 -3.66237 4.92267 -0.0493557 -5.46387 12.9379 0.265235 
0.575309 3.4878 -1.05137 2.67179 -7.21409 -7.13896 1.79953 -1.79722 6.05661 
2.09521 -2.01464 0.177517 0.846217 -3.57961 0.7764 -5.0899 6.15984 -6.52785 
3.21241 -3.90033 3.19645 3.28756 4.60636 -7.3778 -3.46527 6.67233 4.28473 
-2.45544 -0.29363 -0.8541 2.94043 6.37202 1.41401 6.72161 9.5561 3.2309 
-1.57811 -4.37976 -4.12577 7.84898 -1.27107 -4.15954 -3.34588 -8.99463 -1.82525 
-3.34003 -4.97621 5.41858 0.840744 7.88599 9.12347 4.86977 2.90571 -3.98524 
-2.27818 1.69777 7.39517 2.03243 0.339777 -3.14353 1.93312 4.86986 -8.22894 
-8.3199 -5.97058 1.96284 6.87394 8.72868 -0.108859 -0.205245 -0.965188 2.2232 
6.39842 -0.955175 -1.9347 -5.28113 -1.39125 3.15337 9.59263 3.94338 -6.70514 
-8.24541 -7.75692 1.09567 7.69618 2.6822 -4.63235 -2.68754 -5.42118 -4.50029 
-1.90411 -5.55781 -9.12784 -7.14963 -3.21732 -1.30604 4.00105 -1.38237 -8.0161 
-8.90959 -7.70716 -0.224101 2.86681 5.75757 7.64475 1.98808 0.175121 -6.89753 
-2.29791 -7.26538 -5.66233 -1.61742 -5.54421 4.11215 -3.072 5.66052 3.9512 
2.88966 8.83175 3.20545 3.77151 5.14676 2.30443 -3.91446 -1.1927 -4.38907 
-4.3993 -3.41157 2.41558 7.90987 -6.70806 -7.414 -8.53277 2.6282 0.53699 
-5.33452 -5.62382 0.0552566 2.24329 0.401818 -1.98644 -1.25043 0.652426 3.52631 
3.14584 10.2591 6.38972 6.44352 -2.43084 -1.80207 -1.59097 -1.12903 -6.82429 
-8.02189 -3.33104 -5.72146 -0.568188 -3.44828 -0.860333 -7.2685 -7.22468 -5.88785 
-8.70779 -3.35495 -2.7692 -6.01055 -7.54601 3.80867 -1.88001 -4.01922 -1.94061 
-0.0842175 3.99691 6.70855 9.05283 5.33248 2.96806 4.6915 -0.573255 0.839819 
4.59258 8.58852 10.8976 11.7648 11.8283 8.97173 9.99642 4.67641 1.56441 
2.21485 0.0634 2.3762 2.72121 -7.77193 -9.58308 -5.17613 -6.58656 -3.2961 
-3.87072 0.470984 -1.34727 7.58948 2.91724 -5.42571 -4.54624 -5.14757 6.23389 
0.490435 -1.38673 5.74207 4.73219 10.2345 9.84554 8.45046 6.18401 10.2738 
8.13542 -5.39201 -1.81833 -1.24573 -1.95889 -4.63289 -2.79502 -6.89782 -9.23145 
-8.51122 -6.59406 -5.85563 -4.07751 2.22751 -3.57234 -4.42127 -2.46062 8.7 
6.44273 9.49832 5.30979 6.40983 -7.70794 -6.28056 -0.946838 -4.18081 -7.07514 
-6.81909 -3.39622 10.5953 8.20992 8.70309 -6.92107 0.20736 -7.10921 -6.81982 
1.93406 3.84122 0.130192 -0.402825 -0.496776 7.20525 10.8649 1.92225 6.84253 
3.50038 0.549614 -2.40151 -6.09671 -0.631628 -4.23311 0.96909 -0.985829 7.80446 
5.26725 10.1185 3.35602 0.977166 -6.6136 -7.26701 1.86026 6.49485 0.452796 
-4.15807 1.55824 1.68441 3.48227 2.92418 9.55113 6.83181 6.70507 -1.01141 
-3.80801 0.74688 -2.47428 1.22004 -1.464 2.3529 1.58639 -0.367879 3.71469 
-0.912798 -0.136011 -1.25353 3.12275 -0.763337 -6.38454 0.607459 -7.92658 3.47032 
-4.23944 1.38308 -3.80041 4.22834 0.5121 6.31499 5.99151 1.29566 3.5526 
-3.09493 -5.79762 -2.83147 -8.18891 -0.771289 -4.79108 -4.29607 -7.19856 -2.9446 
-0.558212 12.1855 9.12414 8.13261 3.81252 2.48533 -0.122836 -3.20564 -0.834595 
0.443663 0.508436 -3.83301 -1.45928 1.82446 5.25868 4.30863 -0.987604 -2.40977 
-1.82482 8.95639 8.95271 3.55354 -1.69184 -2.72687 -3.71148 -0.766498 0.139991 
4.35685 5.28505 4.21952 5.70865 6.02333 7.86992 -1.59355 3.59568 0.447455 
-0.978469 -6.24657 -2.14539 -3.55083 -0.835015 -4.05641 -0.942217 1.41688 -4.43042 
-1.85027 -8.61605 -0.72139 -0.200361 1.10864 5.23309 7.94557 7.07417 4.05595 
0.305168 -1.35463 1.43428 -1.97609 1.54233 -8.23107 -5.93461 -9.06416 -8.71508 
-6.57803 -0.285349 -4.84897 -3.30531 8.78449 4.48352 4.85742 -2.86405 -0.750279 
4.39281 -3.60736 7.73039 2.62971 9.69488 7.92218 4.16373 4.38861 5.64267 
7.52471 3.04926 6.03681 5.94233 7.01241 1.90925 -6.531 -4.19225 -1.34193 
0.896328 -3.89001 1.55071 1.95408 4.4732 -0.244455 0.680009 0.950548 -0.510871 
-1.97773 4.00527 8.15439 4.24192 5.91151 5.99228 -1.30148 -1.95139 -7.47084 
-2.92407 0.457401 -2.08254 -6.38268 -10.5458 -8.7745 -6.86617 -5.61875 -10.0153 
-3.97487 -9.00644 2.93573 -5.91976 -1.19858 -2.63252 6.12904 -0.0202619 4.38292 
4.52321 -0.202684 -3.543 -4.89411 -6.71621 7.31587 11.0106 7.63088 -8.0633 
-5.89035 -4.64436 -0.360615 -2.18099 3.96486 1.09433 4.32266 6.90258 10.9721 
8.69226 -3.79257 4.62506 -2.97389 -1.81225 5.91484 8.0775 11.3326 -4.8071 
-3.33401 -1.19116 -1.45106 1.51772 2.03799 4.7644 -0.128892 -3.315 0.475223 
3.90954 0.605586 6.49089 6.27769 9.71432 7.43845 9.08457 1.25406 7.05123 
4.21929 6.52467 -2.00255 -5.63755 -7.87062 0.123425 -0.379755 -6.82381 -8.83933 
-6.23097 -8.20786 -7.62423 -9.9843 -7.13077 -7.26802 -6.51823 -4.88666 -3.67266 
-3.28919 -2.59832 0.0202508 4.90793 0.505458 4.67234 -1.59998 2.24395 -0.109501 
-3.47504 -3.07815 0.73411 -9.62475 -2.69345 -4.61895 7.04955 10.9831 13.0015 
12.056 12.6401 9.87993 8.00982 -0.0272426 3.13514 -2.39568 -0.539079 5.21468 
2.73006 4.23256 0.88453 -1.79743 -5.46134 -6.15997 -8.22881 -8.0567 -2.05139 
-0.259927 1.22922 3.42287 -4.89514 -5.53148 -5.339 -4.36155 -1.48614 -3.79564 
-0.723855 -0.459627 -2.23873 -1.35208 -3.47939 -6.91388 -4.47488 -1.43088 -0.821965 
-1.04048 -2.12826 -1.42283 -1.8424 -3.86839 -3.70196 -7.53152 -1.84184 -3.95014 
-4.48211 -3.84626 -6.23056 -8.27575 4.51003 -3.32392 5.10496 0.850659 5.37559 
6.90607 1.37987 1.8052 -1.44749 -1.93911 -1.00039 1.26881 4.93689 3.4046 
2.32073 1.80847 2.09057 -2.32527 -4.21111 -6.47945 -7.30448 -2.46784 -5.43122 
-2.74115 -8.07146 -4.04298 0.0477198 -4.3937 -4.40416 -9.26433 7.94974 7.22062 
10.4985 9.62354 4.93829 -1.33275 -5.41986 -1.53748 6.18947 5.79668 -0.909835 
3.48077 0.205314 3.79959 -5.41206 -1.81768 -3.15028 -3.66484 3.77719 2.83875 
6.00173 6.26183 8.05631 5.2553 1.12527 2.43991 -2.29363 -0.554546 4.17416 
9.43728 6.21543 6.30791 -1.9797 1.61611 -0.700111 -0.72377 -1.01397 1.46339 
10.7367 5.77009 2.84071 9.89018 11.4541 5.59533 9.96898 -3.46975 -6.40013 
-5.3394 1.78998 7.24976 -1.01959 -2.65645 -5.99187 6.46014 -2.92279 1.14137 
-1.86178 -3.80344 1.05244 1.78667 -1.23457 1.00649 0.689143 -2.62854 -5.8195 
-5.96962 -2.70004 -1.89968 5.5488 1.72183 2.73341 -3.66688 -5.28368 -4.96769 
-8.76923 -4.33639 -4.3598 -2.16873 12.4007 10.1603 9.83427 -0.287267 4.38328 
8.07529 7.80829 13.632 12.2391 8.55793 0.90794 5.17744 6.66669 11.4798 
11.02 6.96152 12.28 4.97767 4.97363 1.1088 -6.76529 -3.94722 -2.39103 
-1.45751 -6.16259 0.837269 -4.52917 -1.30674 -3.50519 -4.21047 -1.84391 0.142019 
1.78622 2.54213 1.39736 0.918073 -1.49815 2.40509 -12.8966 -3.47883 -10.7618 
-8.94114 -9.29104 -7.30448 -8.0629 0.17626 -5.38343 -6.48508 -4.97761 -7.42689 
6.91803 8.13025 8.39433 11.5471 8.63519 6.10138 -4.18264 1.56867 5.55626 
7.01223 11.9211 -1.23686 3.4879 -4.22332 -5.81773 -3.44169 1.96724 -1.13513 
-3.75934 -2.17589 0.811539 5.19394 5.69082 -3.05603 -6.43136 -0.597615 -8.47062 
-8.97241 -6.64847 -6.32023 -6.54153 -5.76404 -2.12428 -2.97545 8.30553 5.62222 
8.85411 9.35211 2.49763 -4.4766 -2.99495 -0.819137 -4.37378 -3.11948 -1.11145 
-2.25938 -3.36421 -7.44932 -7.7125 9.52469 7.59379 5.27811 -0.407108 1.81513 
-0.839188 6.35398 4.35654 5.73788 -1.09082 -3.99289 -6.35406 -0.84559 0.0172251 
-3.55092 4.80975 6.29492 4.49146 1.9297 -2.20489 9.27617 8.58451 4.38486 
-9.33331 -6.70316 -7.03861 -6.62155 -1.84073 9.46431 5.67392 9.46694 -2.24808 
3.87958 -1.80845 1.82232 -7.04985 -5.68421 -5.19798 3.95431 2.59246 -0.181381 
-2.3246 0.295159 1.19699 -0.616271 4.63526 5.44551 10.3877 -0.950247 3.4453 
7.313 -0.49407 0.741884 3.49556 -1.17047 -5.18175 -2.0231 -3.193 -7.13983 
-7.00166 11.828 7.8334 6.92082 6.2473 6.89664 4.65934 -1.7613 -6.73973 
-4.916 -2.74962 -1.5415 -4.5224 11.0627 10.7891 3.73098 1.92799 -0.167299 
2.76672 -1.63098 -2.12404 4.62653 7.63694 0.15203 2.50174 -1.6115 -4.40273 
-8.07461 -4.36908 -1.3569 7.06273 2.4537 6.76498 6.47903 3.58401 3.92858 
2.30866 0.594082 -1.84176 -6.3627 10.9267 8.57408 7.16128 5.29733 -6.74907 
-1.91017 -6.79244 -5.85615 1.10898 -0.257732 1.81728 2.95197 9.17787 8.44011 
-2.52087 3.23096 -1.53928 -0.850182 0.816895 11.6686 6.9273 7.88137 5.81539 
1.78083 2.34489 -1.31653 -1.83807 -6.97611 -9.11374 4.90081 8.09083 9.88412 
10.9994 5.30433 0.64612 -3.25827 -4.87577 -5.01398 -2.73414 1.66631 4.32577 
9.04733 7.68489 1.18925 -5.46632 -4.94869 1.10468 3.15296 5.58108 6.42599 
1.269 -2.37328 -1.5068 -2.24109 2.76613 -6.03361 -2.87095 -3.09582 0.815586 
-1.06118 7.89464e-05 7.53089 7.83324 8.34856 7.34746 6.09893 0.0476895 -7.48829 
-9.02226 -7.58153 -4.2467 -6.2876 0.658206 4.07504 8.9247 8.42752 11.5925 
9.48457 6.46564 7.34598 5.423 2.19607 -4.85391 -4.47529 1.39602 -0.63614 
0.501046 3.59986 -2.90223 -7.72837 0.156554 -0.112782 -5.37519 -6.9076 -6.80135 
-4.84669 -2.93485 -6.49878 1.63973 8.55544 8.61275 4.92421 2.78842 -0.992482 
-3.90872 -2.64137 -2.95776 4.1866 0.94404 -3.12883 0.0286884 -2.33572 -4.87672 
0.255986 3.62376 1.20797 1.26972 3.0796 -4.73834 -4.2925 -8.38173 -0.0139944 
7.64875 13.2509 10.2661 11.7456 -4.65224 3.36705 -0.673716 -5.29489 -2.68619 
-3.07307 -1.08897 -6.40509 -8.17883 -10.1609 -9.19936 -10.8514 -2.82616 2.89176 
2.33377 3.84993 -0.23007 -1.7909 -3.93564 -1.96357 -3.50742 -3.03882 -2.46452 
-2.97356 0.244059 -0.106132 -0.192852 8.70142 1.15877 5.07011 -0.147629 -4.02736 
2.53807 4.44379 1.67877 0.239747 -3.61505 -4.6677 -3.64726 -1.63959 -5.90643 
-5.96501 -8.40505 -7.16842 -7.96371 3.14305 9.35588 5.29125 4.90654 9.01427 
10.5913 6.8355 1.20485 -9.00391 -2.03568 -0.581064 -0.775038 -0.453773 -1.40076 
-6.04534 -1.99397 -6.80441 -4.23687 -3.17498 2.27015 -3.8274 -2.42214 5.77657 
-2.43581 0.521891 -5.57621 1.60983 -2.98605 -4.16009 -2.32179 3.9055 -3.34785 
-5.72481 -1.67143 0.904726 1.88431 -3.49919 -3.65501 -3.06297 0.0315369 -3.33849 
-0.184925 1.9585 -1.49602 -1.73525 -0.186719 1.22647 6.28398 10.7731 10.4502 
8.75483 10.5344 13.456 14.9908 8.90968 12.3689 12.3376 7.42749 1.54911 
-1.97872 0.0882665 -4.0235 -0.370967 -3.99543 -5.16547 -3.25038 -1.88122 -2.49169 
-3.09158 -1.6432 -5.74795 -11.9065 -8.56454 -3.61947 -3.08143 -0.0181146 1.65235 
-0.40759 4.15887 1.838 6.06742 12.3615 11.995 12.4982 9.00327 0.926752 
-7.89758 -3.7259 -4.01461 -4.9165 -0.299621 6.45608 1.55168 1.8945 -4.61221 
-7.00408 2.88146 -4.83174 -1.31494 6.87656 7.4833 1.09146 4.74488 4.74237 
5.03388 -5.82964 -1.60231 4.14137 10.2148 5.73632 -5.17318 -2.35839 -7.94165 
1.89097 4.38221 -1.47233 -2.67231 1.12759 -0.496982 -2.75943 -2.04435 -3.12143 
-8.92163 -1.98637 4.70754 7.04637 0.378043 -2.49484 -6.60228 -7.83266 -1.71198 
1.8394 -1.37997 -1.0331 -2.46751 -1.3549 -3.36516 2.64405 4.03206 3.36921 
5.3875 2.04031 -2.19157 -5.55652 -6.4176 -2.87648 -4.985 -6.2026 -5.20847 
4.98521 -4.66994 -3.87437 -7.39857 -1.68571 0.329777 -4.52404 2.46422 4.87952 
5.37055 5.03641 5.06428 2.68802 -1.77363 -7.05614 5.94034 11.626 8.20183 
1.86395 0.537249 -7.19423 -1.67354 8.8413 9.80957 5.58051 -6.35534 -2.68175 
-1.78482 1.33386 9.75553 7.03632 4.3647 -3.93318 -4.11296 -7.3367 -4.14593 
-8.52521 -8.55417 -2.27751 6.20781 2.42438 1.75401 2.44569 7.34749 11.7077 
-1.02144 -9.31715 -5.93872 -3.65646 -2.30672 -0.350743 0.535666 -0.95905 -2.11844 
-8.0919 -5.5274 -2.30308 1.05919 -5.68218 -6.80483 4.15671 1.87489 -2.18293 
3.10562 6.61467 -2.13372 -0.822511 -3.66036 -3.63567 -3.03783 1.92325 -0.533457 
-3.68144 -2.12472 1.54833 0.970964 5.07335 4.38207 2.27614 -1.98369 -2.00368 
-1.27156 -2.03397 2.60016 0.776052 -2.66503 1.89671 5.90565 4.2886 5.06651 
-0.0685014 -6.48088 -3.19753 -0.266069 -6.28983 -5.75995 1.00622 -3.81116 -1.65289 
2.79279 6.62657 2.43334 7.71755 3.57947 -0.847738 -3.66048 -4.0036 -5.99503 
-8.51359 -9.29616 -5.34948 -3.23904 0.0740629 -5.89807 -4.77607 -6.65036 -2.02257 
3.16007 11.2945 6.65601 8.98284 8.17821 5.54653 5.09066 0.872952 0.14536 
-4.17026 -6.76601 5.60978 8.29643 4.63865 1.96873 0.561664 -5.00021 -2.14009 
1.98202 7.24809 4.35638 6.74143 6.24545 2.04796 -2.96643 -1.25909 5.17321 
4.22812 8.00447 5.95514 -2.60522 -7.18249 -1.27036 -7.9709 -5.29732 -4.26789 
1.55958 5.08473 4.35713 6.42453 6.58769 9.51046 10.6611 8.17775 -0.514085 
-6.22727 -6.38541 -11.173 -4.82389 -1.45941 -2.50371 1.93737 2.01747 1.90996 
3.82823 -0.715033 -4.07408 -6.65277 -1.43646 -0.396918 -3.43254 0.576982 -4.54415 
-4.14046 -7.2619 1.0316 -8.34315 -2.42729 -0.740745 4.15391 11.8786 11.3004 
11.5079 8.84856 3.43863 -3.05512 -7.19965 4.46571 6.10261 -0.170678 2.43604 
3.96702 -0.887565 -1.23724 0.736271 -6.42005 -8.91383 -3.98117 -4.476 -5.60252 
-4.0856 3.27175 -2.02676 -0.968429 -5.05599 -5.02255 0.0142601 -2.20228 -2.70132 
2.28687 -1.67409 -5.31321 7.47829 0.826073 4.72335 -2.46688 -2.67211 -2.38266 
-2.80807 6.00111 11.2806 8.1996 10.0715 11.3902 10.4925 10.0059 8.83827 
-4.31692 -1.35913 -6.315 2.81437 -4.45486 -1.94555 2.15471 6.93051 7.39543 
6.49448 -2.06427 3.35091 3.29117 5.49434 7.2357 8.07257 7.82939 1.99492 
-0.241119 2.19481 1.09987 -1.46045 2.40261 -0.630757 -4.11685 -7.44846 -5.55118 
-2.09355 -2.23812 -0.0998389 3.46129 -6.03723 -1.20423 3.72067 -3.59434 -2.71931 
0.00543316 0.516701 -2.20794 -2.64568 -4.59562 -9.05477 -1.33277 -4.14576 -5.22356 
-4.46163 -6.20742 -5.14002 -6.4278 -3.08533 2.60781 -4.41718 0.127397 -2.69266 
-4.92079 -1.37262 8.03056 8.01532 -0.380581 2.51802 -1.83808 -7.34167 -2.38065 
-1.84247 4.25268 8.92859 11.5668 11.689 4.39895 10.5922 12.8844 7.82175 
3.61521 0.628345 -5.43193 -8.78584 -2.38098 -3.3561 -2.62643 3.05359 9.58394 
11.4439 -7.86545 -1.79483 5.0419 1.16052 6.12686 9.63834 9.73216 11.4616 
7.9686 0.750668 -6.57655 -7.70169 -4.82158 -4.30293 -3.09942 2.7577 2.60018 
-3.83156 4.10675 2.64433 5.90002 7.31476 8.9319 8.49685 10.3009 10.0286 
9.37843 6.81031 3.29311 -2.65782 -6.89594 -7.95772 -3.59949 -7.90809 -2.15424 
-1.56678 -0.710769 0.501181 -0.259115 -2.38657 -6.95728 -6.611 -11.331 -10.2194 
-11.5156 -8.41555 -1.67083 -1.99006 -4.72103 -0.651712 4.88181 5.25395 6.28445 
4.23746 -0.72037 -6.41729 -3.35994 -6.13624 -1.28859 -0.450091 -7.60019 -4.83088 
0.787192 -6.35675 -1.75968 6.38206 9.52065 5.47358 4.32122 13.088 9.05052 
4.27688 3.50137 3.97267 6.84206 5.93211 4.95207 4.88206 3.00137 0.339352 
2.83491 4.73036 7.81857 -8.865 -9.26571 -1.78499 -7.46307 -3.93927 3.31105 
3.85152 2.69873 2.41229 -0.898961 2.98067 -1.90726 -5.96933 -6.96809 -7.44407 
-5.53586 -2.0397 -1.16825 2.89294 3.53047 2.48342 2.70137 -0.918652 -0.243299 
-1.6827 -2.17487 -2.44893 -5.53106 -8.45029 -0.513622 0.601132 -1.32554 -1.28316 
-0.0109097 -2.14261 -4.00331 -6.74116 -7.72152 -4.36789 -6.21414 -0.714739 -2.80988 
-3.40331 -5.03971 -4.05217 -1.91916 0.289049 4.5291 8.08261 5.28991 -2.24123 
7.74462 4.86336 1.73399 0.631466 1.14342 -2.07825 -1.38719 4.17521 0.0135824 
-1.96501 -2.45358 -1.81204 -1.36942 -2.98674 -4.01027 -3.62427 -5.01607 -2.90913 
-2.00173 -0.169051 1.25995 -3.59841 -2.0124 -6.86435 -3.57316 -6.02862 -4.49051 